
     Program PWSCF v.7.1 starts on 12Jul2024 at 15:43:55 

     This program is part of the open-source Quantum ESPRESSO suite
     for quantum simulation of materials; please cite
         "P. Giannozzi et al., J. Phys.:Condens. Matter 21 395502 (2009);
         "P. Giannozzi et al., J. Phys.:Condens. Matter 29 465901 (2017);
         "P. Giannozzi et al., J. Chem. Phys. 152 154105 (2020);
          URL http://www.quantum-espresso.org", 
     in publications or presentations arising from this work. More details at
     http://www.quantum-espresso.org/quote

     Parallel version (MPI), running on     1 processors

     MPI processes distributed on     1 nodes
     2385 MiB available memory on the printing compute node when the environment starts
 
     Waiting for input...
     Reading input from standard input

     Current dimensions of program PWSCF are:
     Max number of different atomic species (ntypx) = 10
     Max number of k-points (npk) =  40000
     Max angular momentum in pseudopotentials (lmaxx) =  4

     gamma-point specific algorithms are used
 
     Subspace diagonalization in iterative solution of the eigenvalue problem:
     a serial algorithm will be used

 
     G-vector sticks info
     --------------------
     sticks:   dense  smooth     PW     G-vecs:    dense   smooth      PW
     Sum        4905    4905   1225               258999   258999   32423
 
     Using Slab Decomposition
 


     bravais-lattice index     =            1
     lattice parameter (alat)  =      22.6767  a.u.
     unit-cell volume          =   11661.1220 (a.u.)^3
     number of atoms/cell      =            2
     number of atomic types    =            1
     number of electrons       =        16.00
     number of Kohn-Sham states=            8
     kinetic-energy cutoff     =      30.0000  Ry
     charge density cutoff     =     120.0000  Ry
     scf convergence threshold =      1.0E-06
     mixing beta               =       0.7000
     number of iterations used =            8  plain     mixing
     Exchange-correlation= LDA
                           (   1   1   0   0   0   0   0)

     celldm(1)=  22.676713  celldm(2)=   0.000000  celldm(3)=   0.000000
     celldm(4)=   0.000000  celldm(5)=   0.000000  celldm(6)=   0.000000

     crystal axes: (cart. coord. in units of alat)
               a(1) = (   1.000000   0.000000   0.000000 )  
               a(2) = (   0.000000   1.000000   0.000000 )  
               a(3) = (   0.000000   0.000000   1.000000 )  

     reciprocal axes: (cart. coord. in units 2 pi/alat)
               b(1) = (  1.000000  0.000000  0.000000 )  
               b(2) = (  0.000000  1.000000  0.000000 )  
               b(3) = (  0.000000  0.000000  1.000000 )  


     PseudoPot. # 1 for Ar read from file:
     ./Ar.pz-n-rrkjus_psl.1.0.0.UPF
     MD5 check sum: 183994b7224e903289d5cbed611f1b25
     Pseudo is Ultrasoft + core correction, Zval =  8.0
     Generated using &quot;atomic&quot; code by A. Dal Corso  v.6.2.2
     Using radial grid of 1161 points,  6 beta functions with: 
                l(1) =   0
                l(2) =   0
                l(3) =   1
                l(4) =   1
                l(5) =   2
                l(6) =   2
     Q(r) pseudized with 0 coefficients 


     atomic species   valence    mass     pseudopotential
        Ar             8.00    39.94800     Ar( 1.00)

      8 Sym. Ops. (no inversion) found



   Cartesian axes

     site n.     atom                  positions (alat units)
         1           Ar  tau(   1) = (   0.0000000   0.0000000   0.0000000  )
         2           Ar  tau(   2) = (   0.0000000   0.0000000   0.3750000  )

     number of k points=     1
                       cart. coord. in units 2pi/alat
        k(    1) = (   0.0000000   0.0000000   0.0000000), wk =   2.0000000

     Dense  grid:   129500 G-vectors     FFT dimensions: (  80,  80,  80)

     Estimated max dynamical RAM per process >     472.24 MB

     Check: negative core charge=   -0.000001

     Initial potential from superposition of free atoms

     starting charge      16.0000, renormalised to      16.0000

     negative rho (up, down):  3.351E-02 0.000E+00
     Starting wfcs are    8 randomized atomic wfcs

     total cpu time spent up to now is        0.8 secs

     Self-consistent Calculation

     iteration #  1     ecut=    30.00 Ry     beta= 0.70
     Davidson diagonalization with overlap
     ethr =  1.00E-02,  avg # of iterations =  1.0

     Threshold (ethr) on eigenvalues was too large:
     Diagonalizing with lowered threshold

     Davidson diagonalization with overlap
     ethr =  4.66E-07,  avg # of iterations =  3.0

     negative rho (up, down):  3.060E-02 0.000E+00

     total cpu time spent up to now is        2.7 secs

     total energy              =     -86.22612269 Ry
     estimated scf accuracy    <       0.00006201 Ry

     iteration #  2     ecut=    30.00 Ry     beta= 0.70
     Davidson diagonalization with overlap
     ethr =  3.88E-07,  avg # of iterations =  2.0

     negative rho (up, down):  2.977E-02 0.000E+00

     total cpu time spent up to now is        3.8 secs

     total energy              =     -86.22613392 Ry
     estimated scf accuracy    <       0.00000624 Ry

     iteration #  3     ecut=    30.00 Ry     beta= 0.70
     Davidson diagonalization with overlap
     ethr =  3.90E-08,  avg # of iterations =  2.0

     negative rho (up, down):  2.947E-02 0.000E+00

     total cpu time spent up to now is        4.9 secs

     End of self-consistent calculation

          k = 0.0000 0.0000 0.0000 ( 16212 PWs)   bands (ev):

   -24.0337 -24.0290 -10.1914 -10.1487 -10.1486 -10.1371 -10.1371 -10.0977

     highest occupied level (ev):   -10.0977

!    total energy              =     -86.22613497 Ry
     estimated scf accuracy    <       0.00000041 Ry

     The total energy is the sum of the following terms:
     one-electron contribution =    -112.42055600 Ry
     hartree contribution      =      57.73349334 Ry
     xc contribution           =     -16.58670293 Ry
     ewald contribution        =     -14.95236938 Ry

     convergence has been achieved in   3 iterations
 
     init_run     :      0.47s CPU      0.76s WALL (       1 calls)
     electrons    :      2.45s CPU      4.07s WALL (       1 calls)

     Called by init_run:
     wfcinit      :      0.05s CPU      0.05s WALL (       1 calls)
     potinit      :      0.04s CPU      0.05s WALL (       1 calls)
     hinit0       :      0.15s CPU      0.17s WALL (       1 calls)

     Called by electrons:
     c_bands      :      0.57s CPU      0.58s WALL (       4 calls)
     sum_band     :      1.14s CPU      2.11s WALL (       4 calls)
     v_of_rho     :      0.08s CPU      0.10s WALL (       4 calls)
     newd         :      0.84s CPU      1.71s WALL (       4 calls)
     mix_rho      :      0.04s CPU      0.04s WALL (       4 calls)

     Called by c_bands:
     init_us_2    :      0.03s CPU      0.03s WALL (       9 calls)
     init_us_2:cp :      0.03s CPU      0.03s WALL (       9 calls)
     regterg      :      0.44s CPU      0.45s WALL (       4 calls)

     Called by *egterg:
     rdiaghg      :      0.00s CPU      0.00s WALL (      11 calls)
     h_psi        :      0.42s CPU      0.43s WALL (      13 calls)
     s_psi        :      0.01s CPU      0.01s WALL (      13 calls)
     g_psi        :      0.00s CPU      0.00s WALL (       8 calls)

     Called by h_psi:
     h_psi:calbec :      0.02s CPU      0.02s WALL (      13 calls)
     vloc_psi     :      0.38s CPU      0.39s WALL (      13 calls)
     add_vuspsi   :      0.02s CPU      0.02s WALL (      13 calls)

     General routines
     calbec       :      0.02s CPU      0.02s WALL (      17 calls)
     fft          :      0.07s CPU      0.07s WALL (      17 calls)
     ffts         :      0.01s CPU      0.01s WALL (       4 calls)
     fftw         :      0.37s CPU      0.37s WALL (     112 calls)
 
     Parallel routines
 
     PWSCF        :      2.98s CPU      4.91s WALL

 
   This run was terminated on:  15:44: 0  12Jul2024            

=------------------------------------------------------------------------------=
   JOB DONE.
=------------------------------------------------------------------------------=
