
     Program PWSCF v.7.1 starts on 15Jul2024 at 16:33:43 

     This program is part of the open-source Quantum ESPRESSO suite
     for quantum simulation of materials; please cite
         "P. Giannozzi et al., J. Phys.:Condens. Matter 21 395502 (2009);
         "P. Giannozzi et al., J. Phys.:Condens. Matter 29 465901 (2017);
         "P. Giannozzi et al., J. Chem. Phys. 152 154105 (2020);
          URL http://www.quantum-espresso.org", 
     in publications or presentations arising from this work. More details at
     http://www.quantum-espresso.org/quote

     Parallel version (MPI), running on     1 processors

     MPI processes distributed on     1 nodes
     3241 MiB available memory on the printing compute node when the environment starts
 
     Waiting for input...
     Reading input from standard input

     Current dimensions of program PWSCF are:
     Max number of different atomic species (ntypx) = 10
     Max number of k-points (npk) =  40000
     Max angular momentum in pseudopotentials (lmaxx) =  4
 
     Subspace diagonalization in iterative solution of the eigenvalue problem:
     a serial algorithm will be used

 
     G-vector sticks info
     --------------------
     sticks:   dense  smooth     PW     G-vecs:    dense   smooth      PW
     Sum         187     187     73                 1687     1687     411
 
     Using Slab Decomposition
 


     bravais-lattice index     =            2
     lattice parameter (alat)  =       6.7407  a.u.
     unit-cell volume          =      76.5678 (a.u.)^3
     number of atoms/cell      =            2
     number of atomic types    =            1
     number of electrons       =         8.00
     number of Kohn-Sham states=            8
     kinetic-energy cutoff     =      30.0000  Ry
     charge density cutoff     =     120.0000  Ry
     scf convergence threshold =      1.0E-06
     mixing beta               =       0.7000
     number of iterations used =            8  plain     mixing
     Exchange-correlation=  SLA  PZ   NOGX NOGC
                           (   1   1   0   0   0   0   0)

     celldm(1)=   6.740653  celldm(2)=   0.000000  celldm(3)=   0.000000
     celldm(4)=   0.000000  celldm(5)=   0.000000  celldm(6)=   0.000000

     crystal axes: (cart. coord. in units of alat)
               a(1) = (  -0.500000   0.000000   0.500000 )  
               a(2) = (   0.000000   0.500000   0.500000 )  
               a(3) = (  -0.500000   0.500000   0.000000 )  

     reciprocal axes: (cart. coord. in units 2 pi/alat)
               b(1) = ( -1.000000 -1.000000  1.000000 )  
               b(2) = (  1.000000  1.000000  1.000000 )  
               b(3) = ( -1.000000  1.000000 -1.000000 )  


     PseudoPot. # 1 for C  read from file:
     ./C.pz-vbc.UPF
     MD5 check sum: ab53dd623bfeb79c5a7b057bc96eae20
     Pseudo is Norm-conserving, Zval =  4.0
     Generated by new atomic code, or converted to UPF format
     Using radial grid of  269 points,  1 beta functions with: 
                l(1) =   0

     atomic species   valence    mass     pseudopotential
        C              4.00    12.01100     C ( 1.00)

     48 Sym. Ops., with inversion, found (24 have fractional translation)



   Cartesian axes

     site n.     atom                  positions (alat units)
         1           C   tau(   1) = (   0.0000000   0.0000000   0.0000000  )
         2           C   tau(   2) = (  -0.2500000   0.2500000   0.2500000  )

     number of k points=    28
                       cart. coord. in units 2pi/alat
        k(    1) = (  -0.0833333   0.0833333   0.0833333), wk =   0.0185185
        k(    2) = (  -0.2500000   0.2500000  -0.0833333), wk =   0.0555556
        k(    3) = (  -0.4166667   0.4166667  -0.2500000), wk =   0.0555556
        k(    4) = (   0.4166667  -0.4166667   0.5833333), wk =   0.0555556
        k(    5) = (   0.2500000  -0.2500000   0.4166667), wk =   0.0555556
        k(    6) = (   0.0833333  -0.0833333   0.2500000), wk =   0.0555556
        k(    7) = (  -0.0833333   0.4166667   0.0833333), wk =   0.0555556
        k(    8) = (  -0.2500000   0.5833333  -0.0833333), wk =   0.1111111
        k(    9) = (   0.5833333  -0.2500000   0.7500000), wk =   0.1111111
        k(   10) = (   0.4166667  -0.0833333   0.5833333), wk =   0.1111111
        k(   11) = (   0.2500000   0.0833333   0.4166667), wk =   0.1111111
        k(   12) = (  -0.0833333   0.7500000   0.0833333), wk =   0.0555556
        k(   13) = (   0.7500000  -0.0833333   0.9166667), wk =   0.1111111
        k(   14) = (   0.5833333   0.0833333   0.7500000), wk =   0.1111111
        k(   15) = (   0.4166667   0.2500000   0.5833333), wk =   0.1111111
        k(   16) = (  -0.0833333  -0.9166667   0.0833333), wk =   0.0555556
        k(   17) = (  -0.2500000  -0.7500000  -0.0833333), wk =   0.1111111
        k(   18) = (  -0.0833333  -0.5833333   0.0833333), wk =   0.0555556
        k(   19) = (  -0.2500000   0.2500000   0.2500000), wk =   0.0185185
        k(   20) = (  -0.4166667   0.4166667   0.0833333), wk =   0.0555556
        k(   21) = (   0.4166667  -0.4166667   0.9166667), wk =   0.0555556
        k(   22) = (   0.2500000  -0.2500000   0.7500000), wk =   0.0555556
        k(   23) = (  -0.2500000   0.5833333   0.2500000), wk =   0.0555556
        k(   24) = (   0.5833333  -0.2500000   1.0833333), wk =   0.1111111
        k(   25) = (   0.4166667  -0.0833333   0.9166667), wk =   0.1111111
        k(   26) = (  -0.2500000  -1.0833333   0.2500000), wk =   0.0555556
        k(   27) = (  -0.4166667   0.4166667   0.4166667), wk =   0.0185185
        k(   28) = (   0.4166667  -0.4166667   1.2500000), wk =   0.0555556

     Dense  grid:     1687 G-vectors     FFT dimensions: (  20,  20,  20)

     Estimated max dynamical RAM per process >       2.13 MB

     Initial potential from superposition of free atoms

     starting charge       7.9999, renormalised to       8.0000
     Starting wfcs are    8 randomized atomic wfcs

     total cpu time spent up to now is        0.1 secs

     Self-consistent Calculation

     iteration #  1     ecut=    30.00 Ry     beta= 0.70
     Davidson diagonalization with overlap
     ethr =  1.00E-02,  avg # of iterations =  3.0

     total cpu time spent up to now is        0.2 secs

     total energy              =     -22.53140164 Ry
     estimated scf accuracy    <       0.10171688 Ry

     iteration #  2     ecut=    30.00 Ry     beta= 0.70
     Davidson diagonalization with overlap
     ethr =  1.27E-03,  avg # of iterations =  1.5

     total cpu time spent up to now is        0.3 secs

     total energy              =     -22.53766641 Ry
     estimated scf accuracy    <       0.00251639 Ry

     iteration #  3     ecut=    30.00 Ry     beta= 0.70
     Davidson diagonalization with overlap
     ethr =  3.15E-05,  avg # of iterations =  2.9

     total cpu time spent up to now is        0.4 secs

     total energy              =     -22.53789894 Ry
     estimated scf accuracy    <       0.00008251 Ry

     iteration #  4     ecut=    30.00 Ry     beta= 0.70
     Davidson diagonalization with overlap
     ethr =  1.03E-06,  avg # of iterations =  1.8

     total cpu time spent up to now is        0.4 secs

     End of self-consistent calculation

          k =-0.0833 0.0833 0.0833 (   202 PWs)   bands (ev):

    -7.8659  12.4882  13.5752  13.5752  19.7576  19.7576  20.0471  26.9069

          k =-0.2500 0.2500-0.0833 (   210 PWs)   bands (ev):

    -6.8505   8.8917  10.9588  12.8538  20.6337  21.7804  21.9397  27.4107

          k =-0.4167 0.4167-0.2500 (   213 PWs)   bands (ev):

    -4.3812   3.2820   9.9950  11.3391  22.1031  22.2310  22.8146  28.9105

          k = 0.4167-0.4167 0.5833 (   219 PWs)   bands (ev):

    -2.2933   0.3109  10.1676  10.4785  21.5817  22.7645  22.9181  29.4048

          k = 0.2500-0.2500 0.4167 (   209 PWs)   bands (ev):

    -5.3459   5.0865  10.7366  11.3098  20.9580  22.7844  23.0912  27.8471

          k = 0.0833-0.0833 0.2500 (   207 PWs)   bands (ev):

    -7.3572  10.7252  12.0307  12.8202  19.3602  21.6489  21.6601  26.9092

          k =-0.0833 0.4167 0.0833 (   209 PWs)   bands (ev):

    -6.3360   8.9069  10.2911  10.9821  18.7662  24.0402  24.1384  25.1894

          k =-0.2500 0.5833-0.0833 (   213 PWs)   bands (ev):

    -4.3745   5.5756   7.9358   9.6094  19.9109  24.0544  24.9745  26.7186

          k = 0.5833-0.2500 0.7500 (   214 PWs)   bands (ev):

    -1.3824   1.2215   7.0957   8.8969  20.9751  24.0110  26.9639  28.0919

          k = 0.4167-0.0833 0.5833 (   211 PWs)   bands (ev):

    -3.4147   4.0123   6.6781  10.0877  22.1233  22.7755  26.3309  27.3446

          k = 0.2500 0.0833 0.4167 (   208 PWs)   bands (ev):

    -5.8421   7.1186   9.3963  11.7146  20.4588  23.0624  23.9709  26.4485

          k =-0.0833 0.7500 0.0833 (   211 PWs)   bands (ev):

    -2.9078   4.8320   7.2935   7.8985  17.9457  20.4510  29.0013  29.1502

          k = 0.7500-0.0833 0.9167 (   212 PWs)   bands (ev):

    -0.1821   2.2379   5.4005   7.0725  19.3570  21.5055  28.9599  30.1540

          k = 0.5833 0.0833 0.7500 (   215 PWs)   bands (ev):

    -0.5513   2.0018   4.7679   8.3349  20.5805  25.6470  27.5307  28.2281

          k = 0.4167 0.2500 0.5833 (   214 PWs)   bands (ev):

    -2.9762   1.9131   8.8534  10.1999  21.6215  22.6743  24.7374  28.6404

          k =-0.0833-0.9167 0.0833 (   217 PWs)   bands (ev):

    -0.5460   2.0971   6.6076   7.3916  17.9969  19.1263  30.6036  30.8264

          k =-0.2500-0.7500-0.0833 (   212 PWs)   bands (ev):

    -2.4502   4.1674   6.4781   7.8156  19.5446  22.4119  26.9419  29.1396

          k =-0.0833-0.5833 0.0833 (   215 PWs)   bands (ev):

    -4.8702   7.0889   8.8211   8.8815  18.1819  22.5484  26.6237  26.6742

          k =-0.2500 0.2500 0.2500 (   205 PWs)   bands (ev):

    -6.3357   6.8988  12.0159  12.0159  21.5793  21.5793  21.7314  28.3036

          k =-0.4167 0.4167 0.0833 (   212 PWs)   bands (ev):

    -4.8578   5.4162   7.9629  11.5031  22.1226  22.4871  24.2246  27.6143

          k = 0.4167-0.4167 0.9167 (   215 PWs)   bands (ev):

    -2.0808   2.7471   5.5311   9.7578  20.5535  25.1468  27.0088  28.9350

          k = 0.2500-0.2500 0.7500 (   214 PWs)   bands (ev):

    -2.0293   2.6334   6.7218   8.6752  19.4113  24.9869  26.8073  27.1328

          k =-0.2500 0.5833 0.2500 (   212 PWs)   bands (ev):

    -3.8916   3.6326   9.3105   9.5402  20.1438  24.8586  24.8633  26.2413

          k = 0.5833-0.2500 1.0833 (   213 PWs)   bands (ev):

    -1.5951   3.0006   5.6310   7.9027  22.2049  23.5181  25.8485  29.0175

          k = 0.4167-0.0833 0.9167 (   213 PWs)   bands (ev):

     0.3648   2.1525   4.6945   6.3570  22.0640  24.3597  26.2200  28.1424

          k =-0.2500-1.0833 0.2500 (   219 PWs)   bands (ev):

    -0.0387   1.9264   4.4188   8.2148  18.9770  24.3415  28.2671  29.2484

          k =-0.4167 0.4167 0.4167 (   213 PWs)   bands (ev):

    -3.4735   1.4773  11.0479  11.0479  22.0941  22.0941  22.1358  29.3307

          k = 0.4167-0.4167 1.2500 (   215 PWs)   bands (ev):

    -1.8333   0.7834   8.0584  10.0198  20.9772  24.0294  24.7774  29.4753

     highest occupied, lowest unoccupied level (ev):    13.5752   17.9457

!    total energy              =     -22.53790160 Ry
     estimated scf accuracy    <       0.00000082 Ry

     The total energy is the sum of the following terms:
     one-electron contribution =       8.28512687 Ry
     hartree contribution      =       1.78661199 Ry
     xc contribution           =      -7.03681606 Ry
     ewald contribution        =     -25.57282440 Ry

     convergence has been achieved in   4 iterations

     Writing all to output data dir ./pwscf.save/
 
     init_run     :      0.04s CPU      0.05s WALL (       1 calls)
     electrons    :      0.32s CPU      0.38s WALL (       1 calls)

     Called by init_run:
     wfcinit      :      0.03s CPU      0.04s WALL (       1 calls)
     potinit      :      0.00s CPU      0.00s WALL (       1 calls)
     hinit0       :      0.01s CPU      0.01s WALL (       1 calls)

     Called by electrons:
     c_bands      :      0.27s CPU      0.32s WALL (       4 calls)
     sum_band     :      0.05s CPU      0.06s WALL (       4 calls)
     v_of_rho     :      0.00s CPU      0.00s WALL (       5 calls)
     mix_rho      :      0.00s CPU      0.00s WALL (       4 calls)

     Called by c_bands:
     init_us_2    :      0.00s CPU      0.00s WALL (     252 calls)
     init_us_2:cp :      0.00s CPU      0.00s WALL (     252 calls)
     cegterg      :      0.26s CPU      0.31s WALL (     112 calls)

     Called by *egterg:
     cdiaghg      :      0.03s CPU      0.03s WALL (     369 calls)
     h_psi        :      0.23s CPU      0.28s WALL (     397 calls)
     g_psi        :      0.00s CPU      0.00s WALL (     257 calls)

     Called by h_psi:
     h_psi:calbec :      0.00s CPU      0.01s WALL (     397 calls)
     vloc_psi     :      0.22s CPU      0.27s WALL (     397 calls)
     add_vuspsi   :      0.00s CPU      0.00s WALL (     397 calls)

     General routines
     calbec       :      0.00s CPU      0.00s WALL (     397 calls)
     fft          :      0.00s CPU      0.01s WALL (      14 calls)
     ffts         :      0.00s CPU      0.00s WALL (       4 calls)
     fftw         :      0.21s CPU      0.26s WALL (    5866 calls)
 
     Parallel routines
 
     PWSCF        :      0.38s CPU      0.48s WALL

 
   This run was terminated on:  16:33:43  15Jul2024            

=------------------------------------------------------------------------------=
   JOB DONE.
=------------------------------------------------------------------------------=
