
     Program BANDS v.7.1 starts on 15Jul2024 at 16:33:47 

     This program is part of the open-source Quantum ESPRESSO suite
     for quantum simulation of materials; please cite
         "P. Giannozzi et al., J. Phys.:Condens. Matter 21 395502 (2009);
         "P. Giannozzi et al., J. Phys.:Condens. Matter 29 465901 (2017);
         "P. Giannozzi et al., J. Chem. Phys. 152 154105 (2020);
          URL http://www.quantum-espresso.org", 
     in publications or presentations arising from this work. More details at
     http://www.quantum-espresso.org/quote

     Parallel version (MPI), running on     1 processors

     MPI processes distributed on     1 nodes
     3098 MiB available memory on the printing compute node when the environment starts
 

     Reading xml data from directory:

     ./pwscf.save/

     IMPORTANT: XC functional enforced from input :
     Exchange-correlation= PZ
                           (   1   1   0   0   0   0   0)
     Any further DFT definition will be discarded
     Please, verify this is what you really want

 
     G-vector sticks info
     --------------------
     sticks:   dense  smooth     PW     G-vecs:    dense   smooth      PW
     Sum         187     187     85                 1687     1687     459
 
     Using Slab Decomposition
 
     Reading collected, re-writing distributed wavefunctions
     high-symmetry point:  0.0000 0.0000 0.0000   x coordinate   0.0000
     high-symmetry point: -1.0000 1.0000 0.0000   x coordinate   1.4142
     high-symmetry point: -1.0000 1.0000 1.0000   x coordinate   2.4142
     high-symmetry point: -0.5000 0.5000 0.5000   x coordinate   3.2802
     high-symmetry point:  0.0000 1.0000 0.0000   x coordinate   4.1463
     high-symmetry point: -0.5000 1.0000 0.0000   x coordinate   4.6463
     high-symmetry point: -0.5000 0.5000 0.5000   x coordinate   5.3534

     Plottable bands (eV) written to file bands.out.gnu
     Bands written to file bands.out

 **************************************************************************

                    xk=(   0.00000,   0.00000,   0.00000  )

     point group O_h (m-3m) 
     there are 10 classes
     the character table:

       E     8C3   3C2   6C4   6C2'  i     8S6   3s_h  6S4   6s_d 
A_1g   1.00  1.00  1.00  1.00  1.00  1.00  1.00  1.00  1.00  1.00
A_2g   1.00  1.00  1.00 -1.00 -1.00  1.00  1.00  1.00 -1.00 -1.00
E_g    2.00 -1.00  2.00  0.00  0.00  2.00 -1.00  2.00  0.00  0.00
T_1g   3.00  0.00 -1.00  1.00 -1.00  3.00  0.00 -1.00  1.00 -1.00
T_2g   3.00  0.00 -1.00 -1.00  1.00  3.00  0.00 -1.00 -1.00  1.00
A_1u   1.00  1.00  1.00  1.00  1.00 -1.00 -1.00 -1.00 -1.00 -1.00
A_2u   1.00  1.00  1.00 -1.00 -1.00 -1.00 -1.00 -1.00  1.00  1.00
E_u    2.00 -1.00  2.00  0.00  0.00 -2.00  1.00 -2.00  0.00  0.00
T_1u   3.00  0.00 -1.00  1.00 -1.00 -3.00  0.00  1.00 -1.00  1.00
T_2u   3.00  0.00 -1.00 -1.00  1.00 -3.00  0.00  1.00  1.00 -1.00

     the symmetry operations in each class and the name of the first element:

     E        1
                                                                 
     8C3     17   19   20   18   24   21   22   23
                                                                 
     3C2      2    4    3
                                                                 
     6C4      7    8   15   16   12   11
                                                                 
     6C2'     5    6   14   13   10    9
                                                                 
     i       25
                                                                 
     8S6     41   43   44   42   48   45   46   47
                                                                 
     3s_h    26   28   27
                                                                 
     6S4     31   32   39   40   36   35
                                                                 
     6s_d    29   30   38   37   34   33
                                                                 

     Band symmetry, O_h (m-3m)  point group:

     e(  1 -  1) =     -8.01947  eV     1   --> A_1g G_1   G_1+
     e(  2 -  4) =     13.99416  eV     3   --> T_2g G_25' G_5+
     e(  5 -  7) =     19.40453  eV     3   --> T_1u G_15  G_4-
     e(  8 -  8) =     26.83532  eV     1   --> A_2u G_2'  G_2-

 **************************************************************************

 **************************************************************************

                    xk=(  -0.02500,   0.02500,   0.00000  )

     point group C_2v (mm2) 
     there are  4 classes
     the character table:

       E     C2    s_v   s_v' 
A_1    1.00  1.00  1.00  1.00
A_2    1.00  1.00 -1.00 -1.00
B_1    1.00 -1.00  1.00 -1.00
B_2    1.00 -1.00 -1.00  1.00

     the symmetry operations in each class and the name of the first element:

     E        1
                                                                 
     C2       2
                                                                 
     s_v      4
                                                                 
     s_v'     3
                                                                 

     Band symmetry, C_2v (mm2)  point group:

     e(  1 -  1) =     -8.00766  eV     1   --> A_1  D_1  S_1  
     e(  2 -  2) =     13.91351  eV     1   --> B_1  D_3  S_3  
     e(  3 -  3) =     13.93813  eV     1   --> A_1  D_1  S_1  
     e(  4 -  4) =     13.98721  eV     1   --> A_2  D_2  S_2  
     e(  5 -  5) =     19.41682  eV     1   --> B_2  D_4  S_4  
     e(  6 -  6) =     19.44675  eV     1   --> A_1  D_1  S_1  
     e(  7 -  7) =     19.47132  eV     1   --> B_1  D_3  S_3  
     e(  8 -  8) =     26.85247  eV     1   --> B_1  D_3  S_3  

 **************************************************************************

 **************************************************************************

                    xk=(  -0.05000,   0.05000,   0.00000  )

     Band symmetry, C_2v (mm2)  point group:

     e(  1 -  1) =     -7.98855  eV     1   --> A_1  D_1  S_1  
     e(  2 -  2) =     13.62440  eV     1   --> B_1  D_3  S_3  
     e(  3 -  3) =     13.76772  eV     1   --> A_1  D_1  S_1  
     e(  4 -  4) =     13.94114  eV     1   --> A_2  D_2  S_2  
     e(  5 -  5) =     19.43194  eV     1   --> B_2  D_4  S_4  
     e(  6 -  6) =     19.48584  eV     1   --> A_1  D_1  S_1  
     e(  7 -  7) =     19.62787  eV     1   --> B_1  D_3  S_3  
     e(  8 -  8) =     26.85123  eV     1   --> B_1  D_3  S_3  

 **************************************************************************

 **************************************************************************

                    xk=(  -0.07500,   0.07500,   0.00000  )

     Band symmetry, C_2v (mm2)  point group:

     e(  1 -  1) =     -7.94725  eV     1   --> A_1  D_1  S_1  
     e(  2 -  2) =     13.26648  eV     1   --> B_1  D_3  S_3  
     e(  3 -  3) =     13.46109  eV     1   --> A_1  D_1  S_1  
     e(  4 -  4) =     13.87157  eV     1   --> A_2  D_2  S_2  
     e(  5 -  5) =     19.46059  eV     1   --> B_2  D_4  S_4  
     e(  6 -  6) =     19.64667  eV     1   --> A_1  D_1  S_1  
     e(  7 -  7) =     19.83568  eV     1   --> B_1  D_3  S_3  
     e(  8 -  8) =     26.87258  eV     1   --> B_1  D_3  S_3  

 **************************************************************************

 **************************************************************************

                    xk=(  -0.10000,   0.10000,   0.00000  )

     Band symmetry, C_2v (mm2)  point group:

     e(  1 -  1) =     -7.86763  eV     1   --> A_1  D_1  S_1  
     e(  2 -  2) =     12.80263  eV     1   --> B_1  D_3  S_3  
     e(  3 -  3) =     13.12783  eV     1   --> A_1  D_1  S_1  
     e(  4 -  4) =     13.81914  eV     1   --> A_2  D_2  S_2  
     e(  5 -  5) =     19.54491  eV     1   --> B_2  D_4  S_4  
     e(  6 -  6) =     19.88842  eV     1   --> A_1  D_1  S_1  
     e(  7 -  7) =     20.15614  eV     1   --> B_1  D_3  S_3  
     e(  8 -  8) =     26.91974  eV     1   --> B_1  D_3  S_3  

 **************************************************************************

 **************************************************************************

                    xk=(  -0.12500,   0.12500,   0.00000  )

     Band symmetry, C_2v (mm2)  point group:

     e(  1 -  1) =     -7.76464  eV     1   --> A_1  D_1  S_1  
     e(  2 -  2) =     12.32725  eV     1   --> B_1  D_3  S_3  
     e(  3 -  3) =     12.74502  eV     1   --> A_1  D_1  S_1  
     e(  4 -  4) =     13.75121  eV     1   --> A_2  D_2  S_2  
     e(  5 -  5) =     19.65348  eV     1   --> B_2  D_4  S_4  
     e(  6 -  6) =     20.16895  eV     1   --> A_1  D_1  S_1  
     e(  7 -  7) =     20.50348  eV     1   --> B_1  D_3  S_3  
     e(  8 -  8) =     27.01799  eV     1   --> B_1  D_3  S_3  

 **************************************************************************

 **************************************************************************

                    xk=(  -0.15000,   0.15000,   0.00000  )

     Band symmetry, C_2v (mm2)  point group:

     e(  1 -  1) =     -7.65364  eV     1   --> A_1  D_1  S_1  
     e(  2 -  2) =     11.75461  eV     1   --> B_1  D_3  S_3  
     e(  3 -  3) =     12.22526  eV     1   --> A_1  D_1  S_1  
     e(  4 -  4) =     13.54673  eV     1   --> A_2  D_2  S_2  
     e(  5 -  5) =     19.71604  eV     1   --> B_2  D_4  S_4  
     e(  6 -  6) =     20.45749  eV     1   --> A_1  D_1  S_1  
     e(  7 -  7) =     20.80478  eV     1   --> B_1  D_3  S_3  
     e(  8 -  8) =     26.96004  eV     1   --> B_1  D_3  S_3  

 **************************************************************************

 **************************************************************************

                    xk=(  -0.17500,   0.17500,   0.00000  )

     Band symmetry, C_2v (mm2)  point group:

     e(  1 -  1) =     -7.50326  eV     1   --> A_1  D_1  S_1  
     e(  2 -  2) =     11.22736  eV     1   --> B_1  D_3  S_3  
     e(  3 -  3) =     11.78099  eV     1   --> A_1  D_1  S_1  
     e(  4 -  4) =     13.44249  eV     1   --> A_2  D_2  S_2  
     e(  5 -  5) =     19.87153  eV     1   --> B_2  D_4  S_4  
     e(  6 -  6) =     20.80878  eV     1   --> A_1  D_1  S_1  
     e(  7 -  7) =     21.13644  eV     1   --> B_1  D_3  S_3  
     e(  8 -  8) =     27.05420  eV     1   --> B_1  D_3  S_3  

 **************************************************************************

 **************************************************************************

                    xk=(  -0.20000,   0.20000,   0.00000  )

     Band symmetry, C_2v (mm2)  point group:

     e(  1 -  1) =     -7.33123  eV     1   --> A_1  D_1  S_1  
     e(  2 -  2) =     10.68757  eV     1   --> B_1  D_3  S_3  
     e(  3 -  3) =     11.31174  eV     1   --> A_1  D_1  S_1  
     e(  4 -  4) =     13.32079  eV     1   --> A_2  D_2  S_2  
     e(  5 -  5) =     20.05067  eV     1   --> B_2  D_4  S_4  
     e(  6 -  6) =     21.14276  eV     1   --> A_1  D_1  S_1  
     e(  7 -  7) =     21.44022  eV     1   --> B_1  D_3  S_3  
     e(  8 -  8) =     27.13865  eV     1   --> B_1  D_3  S_3  

 **************************************************************************

 **************************************************************************

                    xk=(  -0.22500,   0.22500,   0.00000  )

     Band symmetry, C_2v (mm2)  point group:

     e(  1 -  1) =     -7.13618  eV     1   --> A_1  D_1  S_1  
     e(  2 -  2) =     10.14277  eV     1   --> B_1  D_3  S_3  
     e(  3 -  3) =     10.82928  eV     1   --> A_1  D_1  S_1  
     e(  4 -  4) =     13.18122  eV     1   --> A_2  D_2  S_2  
     e(  5 -  5) =     20.25319  eV     1   --> B_2  D_4  S_4  
     e(  6 -  6) =     21.49013  eV     1   --> A_1  D_1  S_1  
     e(  7 -  7) =     21.70741  eV     1   --> B_1  D_3  S_3  
     e(  8 -  8) =     27.20328  eV     1   --> B_1  D_3  S_3  

 **************************************************************************

 **************************************************************************

                    xk=(  -0.25000,   0.25000,   0.00000  )

     Band symmetry, C_2v (mm2)  point group:

     e(  1 -  1) =     -6.91826  eV     1   --> A_1  D_1  S_1  
     e(  2 -  2) =      9.59847  eV     1   --> B_1  D_3  S_3  
     e(  3 -  3) =     10.33949  eV     1   --> A_1  D_1  S_1  
     e(  4 -  4) =     13.02362  eV     1   --> A_2  D_2  S_2  
     e(  5 -  5) =     20.47880  eV     1   --> B_2  D_4  S_4  
     e(  6 -  6) =     21.84993  eV     1   --> A_1  D_1  S_1  
     e(  7 -  7) =     21.93170  eV     1   --> B_1  D_3  S_3  
     e(  8 -  8) =     27.24147  eV     1   --> B_1  D_3  S_3  

 **************************************************************************

 **************************************************************************

                    xk=(  -0.27500,   0.27500,   0.00000  )

     Band symmetry, C_2v (mm2)  point group:

     e(  1 -  1) =     -6.67767  eV     1   --> A_1  D_1  S_1  
     e(  2 -  2) =      9.05879  eV     1   --> B_1  D_3  S_3  
     e(  3 -  3) =      9.84714  eV     1   --> A_1  D_1  S_1  
     e(  4 -  4) =     12.84813  eV     1   --> A_2  D_2  S_2  
     e(  5 -  5) =     20.72715  eV     1   --> B_2  D_4  S_4  
     e(  6 -  6) =     22.10827  eV     1   --> B_1  D_3  S_3  
     e(  7 -  7) =     22.22203  eV     1   --> A_1  D_1  S_1  
     e(  8 -  8) =     27.25242  eV     1   --> B_1  D_3  S_3  

 **************************************************************************

 **************************************************************************

                    xk=(  -0.30000,   0.30000,   0.00000  )

     Band symmetry, C_2v (mm2)  point group:

     e(  1 -  1) =     -6.40917  eV     1   --> A_1  D_1  S_1  
     e(  2 -  2) =      8.53491  eV     1   --> B_1  D_3  S_3  
     e(  3 -  3) =      9.37383  eV     1   --> A_1  D_1  S_1  
     e(  4 -  4) =     12.65587  eV     1   --> A_2  D_2  S_2  
     e(  5 -  5) =     21.03460  eV     1   --> B_2  D_4  S_4  
     e(  6 -  6) =     22.27962  eV     1   --> B_1  D_3  S_3  
     e(  7 -  7) =     22.63613  eV     1   --> A_1  D_1  S_1  
     e(  8 -  8) =     27.24254  eV     1   --> B_1  D_3  S_3  

 **************************************************************************

 **************************************************************************

                    xk=(  -0.32500,   0.32500,   0.00000  )

     Band symmetry, C_2v (mm2)  point group:

     e(  1 -  1) =     -6.12459  eV     1   --> A_1  D_1  S_1  
     e(  2 -  2) =      8.01317  eV     1   --> B_1  D_3  S_3  
     e(  3 -  3) =      8.88805  eV     1   --> A_1  D_1  S_1  
     e(  4 -  4) =     12.44642  eV     1   --> A_2  D_2  S_2  
     e(  5 -  5) =     21.32681  eV     1   --> B_2  D_4  S_4  
     e(  6 -  6) =     22.34537  eV     1   --> B_1  D_3  S_3  
     e(  7 -  7) =     23.03196  eV     1   --> A_1  D_1  S_1  
     e(  8 -  8) =     27.22263  eV     1   --> B_1  D_3  S_3  

 **************************************************************************

 **************************************************************************

                    xk=(  -0.35000,   0.35000,   0.00000  )

     Band symmetry, C_2v (mm2)  point group:

     e(  1 -  1) =     -5.81814  eV     1   --> A_1  D_1  S_1  
     e(  2 -  2) =      7.50346  eV     1   --> B_1  D_3  S_3  
     e(  3 -  3) =      8.40966  eV     1   --> A_1  D_1  S_1  
     e(  4 -  4) =     12.22171  eV     1   --> A_2  D_2  S_2  
     e(  5 -  5) =     21.64041  eV     1   --> B_2  D_4  S_4  
     e(  6 -  6) =     22.35392  eV     1   --> B_1  D_3  S_3  
     e(  7 -  7) =     23.44190  eV     1   --> A_1  D_1  S_1  
     e(  8 -  8) =     27.20660  eV     1   --> B_1  D_3  S_3  

 **************************************************************************

 **************************************************************************

                    xk=(  -0.37500,   0.37500,   0.00000  )

     Band symmetry, C_2v (mm2)  point group:

     e(  1 -  1) =     -5.50783  eV     1   --> A_1  D_1  S_1  
     e(  2 -  2) =      7.00729  eV     1   --> B_1  D_3  S_3  
     e(  3 -  3) =      7.93408  eV     1   --> A_1  D_1  S_1  
     e(  4 -  4) =     11.98334  eV     1   --> A_2  D_2  S_2  
     e(  5 -  5) =     21.96118  eV     1   --> B_2  D_4  S_4  
     e(  6 -  6) =     22.30528  eV     1   --> B_1  D_3  S_3  
     e(  7 -  7) =     23.86446  eV     1   --> A_1  D_1  S_1  
     e(  8 -  8) =     27.20735  eV     1   --> B_1  D_3  S_3  

 **************************************************************************

 **************************************************************************

                    xk=(  -0.40000,   0.40000,   0.00000  )

     Band symmetry, C_2v (mm2)  point group:

     e(  1 -  1) =     -5.16042  eV     1   --> A_1  D_1  S_1  
     e(  2 -  2) =      6.52592  eV     1   --> B_1  D_3  S_3  
     e(  3 -  3) =      7.47793  eV     1   --> A_1  D_1  S_1  
     e(  4 -  4) =     11.73321  eV     1   --> A_2  D_2  S_2  
     e(  5 -  5) =     22.20227  eV     1   --> B_1  D_3  S_3  
     e(  6 -  6) =     22.31486  eV     1   --> B_2  D_4  S_4  
     e(  7 -  7) =     24.30516  eV     1   --> A_1  D_1  S_1  
     e(  8 -  8) =     27.23450  eV     1   --> B_1  D_3  S_3  

 **************************************************************************

 **************************************************************************

                    xk=(  -0.42500,   0.42500,   0.00000  )

     Band symmetry, C_2v (mm2)  point group:

     e(  1 -  1) =     -4.79277  eV     1   --> A_1  D_1  S_1  
     e(  2 -  2) =      6.06035  eV     1   --> B_1  D_3  S_3  
     e(  3 -  3) =      7.03590  eV     1   --> A_1  D_1  S_1  
     e(  4 -  4) =     11.47342  eV     1   --> A_2  D_2  S_2  
     e(  5 -  5) =     22.05061  eV     1   --> B_1  D_3  S_3  
     e(  6 -  6) =     22.68779  eV     1   --> B_2  D_4  S_4  
     e(  7 -  7) =     24.76140  eV     1   --> A_1  D_1  S_1  
     e(  8 -  8) =     27.29328  eV     1   --> B_1  D_3  S_3  

 **************************************************************************

 **************************************************************************

                    xk=(  -0.45000,   0.45000,   0.00000  )

     Band symmetry, C_2v (mm2)  point group:

     e(  1 -  1) =     -4.40569  eV     1   --> A_1  D_1  S_1  
     e(  2 -  2) =      5.61141  eV     1   --> B_1  D_3  S_3  
     e(  3 -  3) =      6.60990  eV     1   --> A_1  D_1  S_1  
     e(  4 -  4) =     11.20626  eV     1   --> A_2  D_2  S_2  
     e(  5 -  5) =     21.85824  eV     1   --> B_1  D_3  S_3  
     e(  6 -  6) =     23.07909  eV     1   --> B_2  D_4  S_4  
     e(  7 -  7) =     25.23322  eV     1   --> A_1  D_1  S_1  
     e(  8 -  8) =     27.38497  eV     1   --> B_1  D_3  S_3  

 **************************************************************************

 **************************************************************************

                    xk=(  -0.47500,   0.47500,   0.00000  )

     Band symmetry, C_2v (mm2)  point group:

     e(  1 -  1) =     -4.00018  eV     1   --> A_1  D_1  S_1  
     e(  2 -  2) =      5.17981  eV     1   --> B_1  D_3  S_3  
     e(  3 -  3) =      6.20181  eV     1   --> A_1  D_1  S_1  
     e(  4 -  4) =     10.93407  eV     1   --> A_2  D_2  S_2  
     e(  5 -  5) =     21.63412  eV     1   --> B_1  D_3  S_3  
     e(  6 -  6) =     23.48773  eV     1   --> B_2  D_4  S_4  
     e(  7 -  7) =     25.72016  eV     1   --> A_1  D_1  S_1  
     e(  8 -  8) =     27.50801  eV     1   --> B_1  D_3  S_3  

 **************************************************************************

 **************************************************************************

                    xk=(  -0.50000,   0.50000,   0.00000  )

     Band symmetry, C_2v (mm2)  point group:

     e(  1 -  1) =     -3.61080  eV     1   --> A_1  D_1  S_1  
     e(  2 -  2) =      4.75753  eV     1   --> B_1  D_3  S_3  
     e(  3 -  3) =      5.78998  eV     1   --> A_1  D_1  S_1  
     e(  4 -  4) =     10.59552  eV     1   --> A_2  D_2  S_2  
     e(  5 -  5) =     21.37911  eV     1   --> B_1  D_3  S_3  
     e(  6 -  6) =     23.83663  eV     1   --> B_2  D_4  S_4  
     e(  7 -  7) =     26.16860  eV     1   --> A_1  D_1  S_1  
     e(  8 -  8) =     27.63808  eV     1   --> B_1  D_3  S_3  

 **************************************************************************

 **************************************************************************

                    xk=(  -0.52500,   0.52500,   0.00000  )

     Band symmetry, C_2v (mm2)  point group:

     e(  1 -  1) =     -3.17466  eV     1   --> A_1  D_1  S_1  
     e(  2 -  2) =      4.36169  eV     1   --> B_1  D_3  S_3  
     e(  3 -  3) =      5.42455  eV     1   --> A_1  D_1  S_1  
     e(  4 -  4) =     10.32100  eV     1   --> A_2  D_2  S_2  
     e(  5 -  5) =     21.11757  eV     1   --> B_1  D_3  S_3  
     e(  6 -  6) =     24.27205  eV     1   --> B_2  D_4  S_4  
     e(  7 -  7) =     26.67787  eV     1   --> A_1  D_1  S_1  
     e(  8 -  8) =     27.81434  eV     1   --> B_1  D_3  S_3  

 **************************************************************************

 **************************************************************************

                    xk=(  -0.55000,   0.55000,   0.00000  )

     Band symmetry, C_2v (mm2)  point group:

     e(  1 -  1) =     -2.72553  eV     1   --> A_1  D_1  S_1  
     e(  2 -  2) =      3.98469  eV     1   --> B_1  D_3  S_3  
     e(  3 -  3) =      5.08356  eV     1   --> A_1  D_1  S_1  
     e(  4 -  4) =     10.04845  eV     1   --> A_2  D_2  S_2  
     e(  5 -  5) =     20.84825  eV     1   --> B_1  D_3  S_3  
     e(  6 -  6) =     24.72040  eV     1   --> B_2  D_4  S_4  
     e(  7 -  7) =     27.19111  eV     1   --> A_1  D_1  S_1  
     e(  8 -  8) =     28.01180  eV     1   --> B_1  D_3  S_3  

 **************************************************************************

 **************************************************************************

                    xk=(  -0.57500,   0.57500,   0.00000  )

     Band symmetry, C_2v (mm2)  point group:

     e(  1 -  1) =     -2.28352  eV     1   --> A_1  D_1  S_1  
     e(  2 -  2) =      3.66034  eV     1   --> B_1  D_3  S_3  
     e(  3 -  3) =      4.78195  eV     1   --> A_1  D_1  S_1  
     e(  4 -  4) =      9.78836  eV     1   --> A_2  D_2  S_2  
     e(  5 -  5) =     20.60427  eV     1   --> B_1  D_3  S_3  
     e(  6 -  6) =     25.19831  eV     1   --> B_2  D_4  S_4  
     e(  7 -  7) =     27.72164  eV     1   --> A_1  D_1  S_1  
     e(  8 -  8) =     28.16276  eV     1   --> B_1  D_3  S_3  

 **************************************************************************

 **************************************************************************

                    xk=(  -0.60000,   0.60000,   0.00000  )

     Band symmetry, C_2v (mm2)  point group:

     e(  1 -  1) =     -1.81950  eV     1   --> A_1  D_1  S_1  
     e(  2 -  2) =      3.31982  eV     1   --> B_1  D_3  S_3  
     e(  3 -  3) =      4.49863  eV     1   --> A_1  D_1  S_1  
     e(  4 -  4) =      9.52522  eV     1   --> A_2  D_2  S_2  
     e(  5 -  5) =     20.33288  eV     1   --> B_1  D_3  S_3  
     e(  6 -  6) =     25.66628  eV     1   --> B_2  D_4  S_4  
     e(  7 -  7) =     28.16058  eV     1   --> A_1  D_1  S_1  
     e(  8 -  8) =     28.38927  eV     1   --> B_1  D_3  S_3  

 **************************************************************************

 **************************************************************************

                    xk=(  -0.62500,   0.62500,   0.00000  )

     Band symmetry, C_2v (mm2)  point group:

     e(  1 -  1) =     -1.35617  eV     1   --> A_1  D_1  S_1  
     e(  2 -  2) =      2.99921  eV     1   --> B_1  D_3  S_3  
     e(  3 -  3) =      4.25268  eV     1   --> A_1  D_1  S_1  
     e(  4 -  4) =      9.27006  eV     1   --> A_2  D_2  S_2  
     e(  5 -  5) =     20.06798  eV     1   --> B_1  D_3  S_3  
     e(  6 -  6) =     26.14100  eV     1   --> B_2  D_4  S_4  
     e(  7 -  7) =     28.33577  eV     1   --> A_1  D_1  S_1  
     e(  8 -  8) =     28.62821  eV     1   --> B_1  D_3  S_3  

 **************************************************************************

 **************************************************************************

                    xk=(  -0.65000,   0.65000,   0.00000  )

     Band symmetry, C_2v (mm2)  point group:

     e(  1 -  1) =     -0.90313  eV     1   --> A_1  D_1  S_1  
     e(  2 -  2) =      2.69859  eV     1   --> B_1  D_3  S_3  
     e(  3 -  3) =      4.04772  eV     1   --> A_1  D_1  S_1  
     e(  4 -  4) =      8.99363  eV     1   --> A_2  D_2  S_2  
     e(  5 -  5) =     19.81246  eV     1   --> B_1  D_3  S_3  
     e(  6 -  6) =     26.61971  eV     1   --> B_2  D_4  S_4  
     e(  7 -  7) =     27.90438  eV     1   --> A_1  D_1  S_1  
     e(  8 -  8) =     28.72156  eV     1   --> B_1  D_3  S_3  

 **************************************************************************

 **************************************************************************

                    xk=(  -0.67500,   0.67500,   0.00000  )

     Band symmetry, C_2v (mm2)  point group:

     e(  1 -  1) =     -0.47238  eV     1   --> A_1  D_1  S_1  
     e(  2 -  2) =      2.41818  eV     1   --> B_1  D_3  S_3  
     e(  3 -  3) =      3.90481  eV     1   --> A_1  D_1  S_1  
     e(  4 -  4) =      8.75860  eV     1   --> A_2  D_2  S_2  
     e(  5 -  5) =     19.56901  eV     1   --> B_1  D_3  S_3  
     e(  6 -  6) =     27.09956  eV     1   --> B_2  D_4  S_4  
     e(  7 -  7) =     27.09980  eV     1   --> A_1  D_1  S_1  
     e(  8 -  8) =     28.96790  eV     1   --> B_1  D_3  S_3  

 **************************************************************************

 **************************************************************************

                    xk=(  -0.70000,   0.70000,   0.00000  )

     Band symmetry, C_2v (mm2)  point group:

     e(  1 -  1) =     -0.08186  eV     1   --> A_1  D_1  S_1  
     e(  2 -  2) =      2.15814  eV     1   --> B_1  D_3  S_3  
     e(  3 -  3) =      3.83514  eV     1   --> A_1  D_1  S_1  
     e(  4 -  4) =      8.53614  eV     1   --> A_2  D_2  S_2  
     e(  5 -  5) =     19.33920  eV     1   --> B_1  D_3  S_3  
     e(  6 -  6) =     26.17825  eV     1   --> A_1  D_1  S_1  
     e(  7 -  7) =     27.57699  eV     1   --> B_2  D_4  S_4  
     e(  8 -  8) =     29.21905  eV     1   --> B_1  D_3  S_3  

 **************************************************************************

 **************************************************************************

                    xk=(  -0.72500,   0.72500,   0.00000  )

     Band symmetry, C_2v (mm2)  point group:

     e(  1 -  1) =      0.24753  eV     1   --> A_1  D_1  S_1  
     e(  2 -  2) =      1.91860  eV     1   --> B_1  D_3  S_3  
     e(  3 -  3) =      3.85733  eV     1   --> A_1  D_1  S_1  
     e(  4 -  4) =      8.32748  eV     1   --> A_2  D_2  S_2  
     e(  5 -  5) =     19.12451  eV     1   --> B_1  D_3  S_3  
     e(  6 -  6) =     25.22298  eV     1   --> A_1  D_1  S_1  
     e(  7 -  7) =     28.04809  eV     1   --> B_2  D_4  S_4  
     e(  8 -  8) =     29.47262  eV     1   --> B_1  D_3  S_3  

 **************************************************************************

 **************************************************************************

                    xk=(  -0.75000,   0.75000,   0.00000  )

     Band symmetry, C_2v (mm2)  point group:

     e(  1 -  1) =      0.49746  eV     1   --> A_1  D_1  S_1  
     e(  2 -  2) =      1.69972  eV     1   --> B_1  D_3  S_3  
     e(  3 -  3) =      3.98667  eV     1   --> A_1  D_1  S_1  
     e(  4 -  4) =      8.13373  eV     1   --> A_2  D_2  S_2  
     e(  5 -  5) =     18.92611  eV     1   --> B_1  D_3  S_3  
     e(  6 -  6) =     24.26476  eV     1   --> A_1  D_1  S_1  
     e(  7 -  7) =     28.50843  eV     1   --> B_2  D_4  S_4  
     e(  8 -  8) =     29.72599  eV     1   --> B_1  D_3  S_3  

 **************************************************************************

 **************************************************************************

                    xk=(  -0.77500,   0.77500,   0.00000  )

     Band symmetry, C_2v (mm2)  point group:

     e(  1 -  1) =      0.66155  eV     1   --> A_1  D_1  S_1  
     e(  2 -  2) =      1.50161  eV     1   --> B_1  D_3  S_3  
     e(  3 -  3) =      4.22549  eV     1   --> A_1  D_1  S_1  
     e(  4 -  4) =      7.95583  eV     1   --> A_2  D_2  S_2  
     e(  5 -  5) =     18.74493  eV     1   --> B_1  D_3  S_3  
     e(  6 -  6) =     23.32081  eV     1   --> A_1  D_1  S_1  
     e(  7 -  7) =     28.95311  eV     1   --> B_2  D_4  S_4  
     e(  8 -  8) =     29.97627  eV     1   --> B_1  D_3  S_3  

 **************************************************************************

 **************************************************************************

                    xk=(  -0.80000,   0.80000,   0.00000  )

     Band symmetry, C_2v (mm2)  point group:

     e(  1 -  1) =      0.75888  eV     1   --> A_1  D_1  S_1  
     e(  2 -  2) =      1.34262  eV     1   --> B_1  D_3  S_3  
     e(  3 -  3) =      4.62446  eV     1   --> A_1  D_1  S_1  
     e(  4 -  4) =      7.82132  eV     1   --> A_2  D_2  S_2  
     e(  5 -  5) =     18.58836  eV     1   --> B_1  D_3  S_3  
     e(  6 -  6) =     22.47481  eV     1   --> A_1  D_1  S_1  
     e(  7 -  7) =     29.46600  eV     1   --> B_2  D_4  S_4  
     e(  8 -  8) =     30.25755  eV     1   --> B_1  D_3  S_3  

 **************************************************************************

 **************************************************************************

                    xk=(  -0.82500,   0.82500,   0.00000  )

     Band symmetry, C_2v (mm2)  point group:

     e(  1 -  1) =      0.79315  eV     1   --> A_1  D_1  S_1  
     e(  2 -  2) =      1.18334  eV     1   --> B_1  D_3  S_3  
     e(  3 -  3) =      5.01000  eV     1   --> A_1  D_1  S_1  
     e(  4 -  4) =      7.67654  eV     1   --> A_2  D_2  S_2  
     e(  5 -  5) =     18.43092  eV     1   --> B_1  D_3  S_3  
     e(  6 -  6) =     21.58432  eV     1   --> A_1  D_1  S_1  
     e(  7 -  7) =     29.86081  eV     1   --> B_2  D_4  S_4  
     e(  8 -  8) =     30.45569  eV     1   --> B_1  D_3  S_3  

 **************************************************************************

 **************************************************************************

                    xk=(  -0.85000,   0.85000,   0.00000  )

     Band symmetry, C_2v (mm2)  point group:

     e(  1 -  1) =      0.79169  eV     1   --> A_1  D_1  S_1  
     e(  2 -  2) =      1.04705  eV     1   --> B_1  D_3  S_3  
     e(  3 -  3) =      5.44782  eV     1   --> A_1  D_1  S_1  
     e(  4 -  4) =      7.54990  eV     1   --> A_2  D_2  S_2  
     e(  5 -  5) =     18.30393  eV     1   --> B_1  D_3  S_3  
     e(  6 -  6) =     20.75006  eV     1   --> A_1  D_1  S_1  
     e(  7 -  7) =     30.22202  eV     1   --> B_2  D_4  S_4  
     e(  8 -  8) =     30.67846  eV     1   --> B_1  D_3  S_3  

 **************************************************************************

 **************************************************************************

                    xk=(  -0.87500,   0.87500,   0.00000  )

     Band symmetry, C_2v (mm2)  point group:

     e(  1 -  1) =      0.77106  eV     1   --> A_1  D_1  S_1  
     e(  2 -  2) =      0.93191  eV     1   --> B_1  D_3  S_3  
     e(  3 -  3) =      5.89383  eV     1   --> A_1  D_1  S_1  
     e(  4 -  4) =      7.44191  eV     1   --> A_2  D_2  S_2  
     e(  5 -  5) =     18.19631  eV     1   --> B_1  D_3  S_3  
     e(  6 -  6) =     19.98478  eV     1   --> A_1  D_1  S_1  
     e(  7 -  7) =     30.54312  eV     1   --> B_2  D_4  S_4  
     e(  8 -  8) =     30.88194  eV     1   --> B_1  D_3  S_3  

 **************************************************************************

 **************************************************************************

                    xk=(  -0.90000,   0.90000,   0.00000  )

     Band symmetry, C_2v (mm2)  point group:

     e(  1 -  1) =      0.73439  eV     1   --> A_1  D_1  S_1  
     e(  2 -  2) =      0.83798  eV     1   --> B_1  D_3  S_3  
     e(  3 -  3) =      6.31423  eV     1   --> A_1  D_1  S_1  
     e(  4 -  4) =      7.35301  eV     1   --> A_2  D_2  S_2  
     e(  5 -  5) =     18.10833  eV     1   --> B_1  D_3  S_3  
     e(  6 -  6) =     19.30466  eV     1   --> A_1  D_1  S_1  
     e(  7 -  7) =     30.69575  eV     1   --> B_2  D_4  S_4  
     e(  8 -  8) =     31.06042  eV     1   --> B_1  D_3  S_3  

 **************************************************************************

 **************************************************************************

                    xk=(  -0.92500,   0.92500,   0.00000  )

     Band symmetry, C_2v (mm2)  point group:

     e(  1 -  1) =      0.70524  eV     1   --> A_1  D_1  S_1  
     e(  2 -  2) =      0.76410  eV     1   --> B_1  D_3  S_3  
     e(  3 -  3) =      6.66451  eV     1   --> A_1  D_1  S_1  
     e(  4 -  4) =      7.28355  eV     1   --> A_2  D_2  S_2  
     e(  5 -  5) =     18.03687  eV     1   --> B_1  D_3  S_3  
     e(  6 -  6) =     18.73574  eV     1   --> A_1  D_1  S_1  
     e(  7 -  7) =     30.91239  eV     1   --> B_2  D_4  S_4  
     e(  8 -  8) =     31.13900  eV     1   --> B_1  D_3  S_3  

 **************************************************************************

 **************************************************************************

                    xk=(  -0.95000,   0.95000,   0.00000  )

     Band symmetry, C_2v (mm2)  point group:

     e(  1 -  1) =      0.68255  eV     1   --> A_1  D_1  S_1  
     e(  2 -  2) =      0.71237  eV     1   --> B_1  D_3  S_3  
     e(  3 -  3) =      6.96154  eV     1   --> A_1  D_1  S_1  
     e(  4 -  4) =      7.23379  eV     1   --> A_2  D_2  S_2  
     e(  5 -  5) =     17.98810  eV     1   --> B_1  D_3  S_3  
     e(  6 -  6) =     18.30424  eV     1   --> A_1  D_1  S_1  
     e(  7 -  7) =     31.07132  eV     1   --> B_2  D_4  S_4  
     e(  8 -  8) =     31.24793  eV     1   --> B_1  D_3  S_3  

 **************************************************************************

 **************************************************************************

                    xk=(  -0.97500,   0.97500,   0.00000  )

     Band symmetry, C_2v (mm2)  point group:

     e(  1 -  1) =      0.66293  eV     1   --> A_1  D_1  S_1  
     e(  2 -  2) =      0.66846  eV     1   --> B_1  D_3  S_3  
     e(  3 -  3) =      7.12433  eV     1   --> A_1  D_1  S_1  
     e(  4 -  4) =      7.20075  eV     1   --> A_2  D_2  S_2  
     e(  5 -  5) =     17.94888  eV     1   --> B_1  D_3  S_3  
     e(  6 -  6) =     18.03200  eV     1   --> A_1  D_1  S_1  
     e(  7 -  7) =     31.16843  eV     1   --> B_2  D_4  S_4  
     e(  8 -  8) =     31.17900  eV     1   --> B_1  D_3  S_3  

 **************************************************************************

 **************************************************************************

                    xk=(  -1.00000,   1.00000,   0.00000  )

     zone border point and non-symmorphic group 
     symmetry decomposition not available

 **************************************************************************

 **************************************************************************

                    xk=(  -1.00000,   1.00000,   0.03333  )

     zone border point and non-symmorphic group 
     symmetry decomposition not available

 **************************************************************************

 **************************************************************************

                    xk=(  -1.00000,   1.00000,   0.06667  )

     zone border point and non-symmorphic group 
     symmetry decomposition not available

 **************************************************************************

 **************************************************************************

                    xk=(  -1.00000,   1.00000,   0.10000  )

     zone border point and non-symmorphic group 
     symmetry decomposition not available

 **************************************************************************

 **************************************************************************

                    xk=(  -1.00000,   1.00000,   0.13333  )

     zone border point and non-symmorphic group 
     symmetry decomposition not available

 **************************************************************************

 **************************************************************************

                    xk=(  -1.00000,   1.00000,   0.16667  )

     zone border point and non-symmorphic group 
     symmetry decomposition not available

 **************************************************************************

 **************************************************************************

                    xk=(  -1.00000,   1.00000,   0.20000  )

     zone border point and non-symmorphic group 
     symmetry decomposition not available

 **************************************************************************

 **************************************************************************

                    xk=(  -1.00000,   1.00000,   0.23333  )

     zone border point and non-symmorphic group 
     symmetry decomposition not available

 **************************************************************************

 **************************************************************************

                    xk=(  -1.00000,   1.00000,   0.26667  )

     zone border point and non-symmorphic group 
     symmetry decomposition not available

 **************************************************************************

 **************************************************************************

                    xk=(  -1.00000,   1.00000,   0.30000  )

     zone border point and non-symmorphic group 
     symmetry decomposition not available

 **************************************************************************

 **************************************************************************

                    xk=(  -1.00000,   1.00000,   0.33333  )

     zone border point and non-symmorphic group 
     symmetry decomposition not available

 **************************************************************************

 **************************************************************************

                    xk=(  -1.00000,   1.00000,   0.36667  )

     zone border point and non-symmorphic group 
     symmetry decomposition not available

 **************************************************************************

 **************************************************************************

                    xk=(  -1.00000,   1.00000,   0.40000  )

     zone border point and non-symmorphic group 
     symmetry decomposition not available

 **************************************************************************

 **************************************************************************

                    xk=(  -1.00000,   1.00000,   0.43333  )

     zone border point and non-symmorphic group 
     symmetry decomposition not available

 **************************************************************************

 **************************************************************************

                    xk=(  -1.00000,   1.00000,   0.46667  )

     zone border point and non-symmorphic group 
     symmetry decomposition not available

 **************************************************************************

 **************************************************************************

                    xk=(  -1.00000,   1.00000,   0.50000  )

     zone border point and non-symmorphic group 
     symmetry decomposition not available

 **************************************************************************

 **************************************************************************

                    xk=(  -1.00000,   1.00000,   0.53333  )

     zone border point and non-symmorphic group 
     symmetry decomposition not available

 **************************************************************************

 **************************************************************************

                    xk=(  -1.00000,   1.00000,   0.56667  )

     zone border point and non-symmorphic group 
     symmetry decomposition not available

 **************************************************************************

 **************************************************************************

                    xk=(  -1.00000,   1.00000,   0.60000  )

     zone border point and non-symmorphic group 
     symmetry decomposition not available

 **************************************************************************

 **************************************************************************

                    xk=(  -1.00000,   1.00000,   0.63333  )

     zone border point and non-symmorphic group 
     symmetry decomposition not available

 **************************************************************************

 **************************************************************************

                    xk=(  -1.00000,   1.00000,   0.66667  )

     zone border point and non-symmorphic group 
     symmetry decomposition not available

 **************************************************************************

 **************************************************************************

                    xk=(  -1.00000,   1.00000,   0.70000  )

     zone border point and non-symmorphic group 
     symmetry decomposition not available

 **************************************************************************

 **************************************************************************

                    xk=(  -1.00000,   1.00000,   0.73333  )

     zone border point and non-symmorphic group 
     symmetry decomposition not available

 **************************************************************************

 **************************************************************************

                    xk=(  -1.00000,   1.00000,   0.76667  )

     zone border point and non-symmorphic group 
     symmetry decomposition not available

 **************************************************************************

 **************************************************************************

                    xk=(  -1.00000,   1.00000,   0.80000  )

     zone border point and non-symmorphic group 
     symmetry decomposition not available

 **************************************************************************

 **************************************************************************

                    xk=(  -1.00000,   1.00000,   0.83333  )

     zone border point and non-symmorphic group 
     symmetry decomposition not available

 **************************************************************************

 **************************************************************************

                    xk=(  -1.00000,   1.00000,   0.86667  )

     zone border point and non-symmorphic group 
     symmetry decomposition not available

 **************************************************************************

 **************************************************************************

                    xk=(  -1.00000,   1.00000,   0.90000  )

     zone border point and non-symmorphic group 
     symmetry decomposition not available

 **************************************************************************

 **************************************************************************

                    xk=(  -1.00000,   1.00000,   0.93333  )

     zone border point and non-symmorphic group 
     symmetry decomposition not available

 **************************************************************************

 **************************************************************************

                    xk=(  -1.00000,   1.00000,   0.96667  )

     zone border point and non-symmorphic group 
     symmetry decomposition not available

 **************************************************************************

 **************************************************************************

                    xk=(  -1.00000,   1.00000,   1.00000  )

     zone border point and non-symmorphic group 
     symmetry decomposition not available

 **************************************************************************

 **************************************************************************

                    xk=(  -0.98333,   0.98333,   0.98333  )

     point group C_3v (3m)  
     there are  3 classes
     the character table:

       E     2C3   3s_v 
A_1    1.00  1.00  1.00
A_2    1.00  1.00 -1.00
E      2.00 -1.00  0.00

     the symmetry operations in each class and the name of the first element:

     E        1
                                                                 
     2C3      2    3
                                                                 
     3s_v     4    5    6
                                                                 

     Band symmetry, C_3v (3m)   point group:

     e(  1 -  1) =     -8.01159  eV     1   --> A_1  L_1       
     e(  2 -  2) =     13.92920  eV     1   --> A_1  L_1       
     e(  3 -  4) =     13.97859  eV     2   --> E    L_3       
     e(  5 -  6) =     19.42502  eV     2   --> E    L_3       
     e(  7 -  7) =     19.44475  eV     1   --> A_1  L_1       
     e(  8 -  8) =     26.84679  eV     1   --> A_1  L_1       

 **************************************************************************

 **************************************************************************

                    xk=(  -0.96667,   0.96667,   0.96667  )

     Band symmetry, C_3v (3m)   point group:

     e(  1 -  1) =     -8.00002  eV     1   --> A_1  L_1       
     e(  2 -  2) =     13.70734  eV     1   --> A_1  L_1       
     e(  3 -  4) =     13.91506  eV     2   --> E    L_3       
     e(  5 -  7) =     19.47490  eV     3   --> A_1  L_1       
     e(  5 -  7) =     19.47490  eV     3   --> E    L_3       
     e(  8 -  8) =     26.84434  eV     1   --> A_1  L_1       

 **************************************************************************

 **************************************************************************

                    xk=(  -0.95000,   0.95000,   0.95000  )

     Band symmetry, C_3v (3m)   point group:

     e(  1 -  1) =     -7.97386  eV     1   --> A_1  L_1       
     e(  2 -  2) =     13.36462  eV     1   --> A_1  L_1       
     e(  3 -  4) =     13.82468  eV     2   --> E    L_3       
     e(  5 -  6) =     19.54537  eV     2   --> E    L_3       
     e(  7 -  7) =     19.62027  eV     1   --> A_1  L_1       
     e(  8 -  8) =     26.85600  eV     1   --> A_1  L_1       

 **************************************************************************

 **************************************************************************

                    xk=(  -0.93333,   0.93333,   0.93333  )

     Band symmetry, C_3v (3m)   point group:

     e(  1 -  1) =     -7.92088  eV     1   --> A_1  L_1       
     e(  2 -  2) =     12.99488  eV     1   --> A_1  L_1       
     e(  3 -  4) =     13.72653  eV     2   --> E    L_3       
     e(  5 -  6) =     19.67310  eV     2   --> E    L_3       
     e(  7 -  7) =     19.82925  eV     1   --> A_1  L_1       
     e(  8 -  8) =     26.92088  eV     1   --> A_1  L_1       

 **************************************************************************

 **************************************************************************

                    xk=(  -0.91667,   0.91667,   0.91667  )

     Band symmetry, C_3v (3m)   point group:

     e(  1 -  1) =     -7.86385  eV     1   --> A_1  L_1       
     e(  2 -  2) =     12.49198  eV     1   --> A_1  L_1       
     e(  3 -  4) =     13.57926  eV     2   --> E    L_3       
     e(  5 -  6) =     19.76063  eV     2   --> E    L_3       
     e(  7 -  7) =     20.05014  eV     1   --> A_1  L_1       
     e(  8 -  8) =     26.91104  eV     1   --> A_1  L_1       

 **************************************************************************

 **************************************************************************

                    xk=(  -0.90000,   0.90000,   0.90000  )

     Band symmetry, C_3v (3m)   point group:

     e(  1 -  1) =     -7.78006  eV     1   --> A_1  L_1       
     e(  2 -  2) =     12.01532  eV     1   --> A_1  L_1       
     e(  3 -  4) =     13.44804  eV     2   --> E    L_3       
     e(  5 -  6) =     19.93194  eV     2   --> E    L_3       
     e(  7 -  7) =     20.28094  eV     1   --> A_1  L_1       
     e(  8 -  8) =     27.00498  eV     1   --> A_1  L_1       

 **************************************************************************

 **************************************************************************

                    xk=(  -0.88333,   0.88333,   0.88333  )

     Band symmetry, C_3v (3m)   point group:

     e(  1 -  1) =     -7.68074  eV     1   --> A_1  L_1       
     e(  2 -  2) =     11.50225  eV     1   --> A_1  L_1       
     e(  3 -  4) =     13.30516  eV     2   --> E    L_3       
     e(  5 -  6) =     20.11900  eV     2   --> E    L_3       
     e(  7 -  7) =     20.50581  eV     1   --> A_1  L_1       
     e(  8 -  8) =     27.11813  eV     1   --> A_1  L_1       

 **************************************************************************

 **************************************************************************

                    xk=(  -0.86667,   0.86667,   0.86667  )

     Band symmetry, C_3v (3m)   point group:

     e(  1 -  1) =     -7.56596  eV     1   --> A_1  L_1       
     e(  2 -  2) =     10.94144  eV     1   --> A_1  L_1       
     e(  3 -  4) =     13.08585  eV     2   --> E    L_3       
     e(  5 -  6) =     20.30805  eV     2   --> E    L_3       
     e(  7 -  7) =     20.71067  eV     1   --> A_1  L_1       
     e(  8 -  8) =     27.13676  eV     1   --> A_1  L_1       

 **************************************************************************

 **************************************************************************

                    xk=(  -0.85000,   0.85000,   0.85000  )

     Band symmetry, C_3v (3m)   point group:

     e(  1 -  1) =     -7.43574  eV     1   --> A_1  L_1       
     e(  2 -  2) =     10.38564  eV     1   --> A_1  L_1       
     e(  3 -  4) =     12.92996  eV     2   --> E    L_3       
     e(  5 -  6) =     20.50831  eV     2   --> E    L_3       
     e(  7 -  7) =     20.90700  eV     1   --> A_1  L_1       
     e(  8 -  8) =     27.27518  eV     1   --> A_1  L_1       

 **************************************************************************

 **************************************************************************

                    xk=(  -0.83333,   0.83333,   0.83333  )

     Band symmetry, C_3v (3m)   point group:

     e(  1 -  1) =     -7.28631  eV     1   --> A_1  L_1       
     e(  2 -  2) =      9.83004  eV     1   --> A_1  L_1       
     e(  3 -  4) =     12.77247  eV     2   --> E    L_3       
     e(  5 -  6) =     20.72437  eV     2   --> E    L_3       
     e(  7 -  7) =     21.14148  eV     1   --> A_1  L_1       
     e(  8 -  8) =     27.42879  eV     1   --> A_1  L_1       

 **************************************************************************

 **************************************************************************

                    xk=(  -0.81667,   0.81667,   0.81667  )

     Band symmetry, C_3v (3m)   point group:

     e(  1 -  1) =     -7.12598  eV     1   --> A_1  L_1       
     e(  2 -  2) =      9.25097  eV     1   --> A_1  L_1       
     e(  3 -  4) =     12.61490  eV     2   --> E    L_3       
     e(  5 -  6) =     20.91925  eV     2   --> E    L_3       
     e(  7 -  7) =     21.29498  eV     1   --> A_1  L_1       
     e(  8 -  8) =     27.59381  eV     1   --> A_1  L_1       

 **************************************************************************

 **************************************************************************

                    xk=(  -0.80000,   0.80000,   0.80000  )

     Band symmetry, C_3v (3m)   point group:

     e(  1 -  1) =     -6.95041  eV     1   --> A_1  L_1       
     e(  2 -  2) =      8.66577  eV     1   --> A_1  L_1       
     e(  3 -  4) =     12.45944  eV     2   --> E    L_3       
     e(  5 -  6) =     21.10557  eV     2   --> E    L_3       
     e(  7 -  7) =     21.42960  eV     1   --> A_1  L_1       
     e(  8 -  8) =     27.76768  eV     1   --> A_1  L_1       

 **************************************************************************

 **************************************************************************

                    xk=(  -0.78333,   0.78333,   0.78333  )

     Band symmetry, C_3v (3m)   point group:

     e(  1 -  1) =     -6.75972  eV     1   --> A_1  L_1       
     e(  2 -  2) =      8.07752  eV     1   --> A_1  L_1       
     e(  3 -  4) =     12.30762  eV     2   --> E    L_3       
     e(  5 -  6) =     21.27991  eV     2   --> E    L_3       
     e(  7 -  7) =     21.54661  eV     1   --> A_1  L_1       
     e(  8 -  8) =     27.94700  eV     1   --> A_1  L_1       

 **************************************************************************

 **************************************************************************

                    xk=(  -0.76667,   0.76667,   0.76667  )

     Band symmetry, C_3v (3m)   point group:

     e(  1 -  1) =     -6.55404  eV     1   --> A_1  L_1       
     e(  2 -  2) =      7.48879  eV     1   --> A_1  L_1       
     e(  3 -  4) =     12.16069  eV     2   --> E    L_3       
     e(  5 -  6) =     21.43953  eV     2   --> E    L_3       
     e(  7 -  7) =     21.64764  eV     1   --> A_1  L_1       
     e(  8 -  8) =     28.12806  eV     1   --> A_1  L_1       

 **************************************************************************

 **************************************************************************

                    xk=(  -0.75000,   0.75000,   0.75000  )

     Band symmetry, C_3v (3m)   point group:

     e(  1 -  1) =     -6.33352  eV     1   --> A_1  L_1       
     e(  2 -  2) =      6.90174  eV     1   --> A_1  L_1       
     e(  3 -  4) =     12.01969  eV     2   --> E    L_3       
     e(  5 -  6) =     21.58239  eV     2   --> E    L_3       
     e(  7 -  7) =     21.73453  eV     1   --> A_1  L_1       
     e(  8 -  8) =     28.30700  eV     1   --> A_1  L_1       

 **************************************************************************

 **************************************************************************

                    xk=(  -0.73333,   0.73333,   0.73333  )

     Band symmetry, C_3v (3m)   point group:

     e(  1 -  1) =     -6.09837  eV     1   --> A_1  L_1       
     e(  2 -  2) =      6.31826  eV     1   --> A_1  L_1       
     e(  3 -  4) =     11.88544  eV     2   --> E    L_3       
     e(  5 -  6) =     21.70725  eV     2   --> E    L_3       
     e(  7 -  7) =     21.80909  eV     1   --> A_1  L_1       
     e(  8 -  8) =     28.47988  eV     1   --> A_1  L_1       

 **************************************************************************

 **************************************************************************

                    xk=(  -0.71667,   0.71667,   0.71667  )

     Band symmetry, C_3v (3m)   point group:

     e(  1 -  1) =     -5.84881  eV     1   --> A_1  L_1       
     e(  2 -  2) =      5.74002  eV     1   --> A_1  L_1       
     e(  3 -  4) =     11.75862  eV     2   --> E    L_3       
     e(  5 -  6) =     21.81366  eV     2   --> E    L_3       
     e(  7 -  7) =     21.87304  eV     1   --> A_1  L_1       
     e(  8 -  8) =     28.64288  eV     1   --> A_1  L_1       

 **************************************************************************

 **************************************************************************

                    xk=(  -0.70000,   0.70000,   0.70000  )

     Band symmetry, C_3v (3m)   point group:

     e(  1 -  1) =     -5.58515  eV     1   --> A_1  L_1       
     e(  2 -  2) =      5.16852  eV     1   --> A_1  L_1       
     e(  3 -  4) =     11.63979  eV     2   --> E    L_3       
     e(  5 -  6) =     21.90191  eV     2   --> E    L_3       
     e(  7 -  7) =     21.92792  eV     1   --> A_1  L_1       
     e(  8 -  8) =     28.79255  eV     1   --> A_1  L_1       

 **************************************************************************

 **************************************************************************

                    xk=(  -0.68333,   0.68333,   0.68333  )

     Band symmetry, C_3v (3m)   point group:

     e(  1 -  1) =     -5.30777  eV     1   --> A_1  L_1       
     e(  2 -  2) =      4.60517  eV     1   --> A_1  L_1       
     e(  3 -  4) =     11.52939  eV     2   --> E    L_3       
     e(  5 -  6) =     21.97298  eV     2   --> E    L_3       
     e(  7 -  7) =     21.97511  eV     1   --> A_1  L_1       
     e(  8 -  8) =     28.92602  eV     1   --> A_1  L_1       

 **************************************************************************

 **************************************************************************

                    xk=(  -0.66667,   0.66667,   0.66667  )

     Band symmetry, C_3v (3m)   point group:

     e(  1 -  1) =     -5.01720  eV     1   --> A_1  L_1       
     e(  2 -  2) =      4.05138  eV     1   --> A_1  L_1       
     e(  3 -  4) =     11.42778  eV     2   --> E    L_3       
     e(  5 -  5) =     22.01577  eV     1   --> A_1  L_1       
     e(  6 -  7) =     22.02837  eV     2   --> E    L_3       
     e(  8 -  8) =     29.04135  eV     1   --> A_1  L_1       

 **************************************************************************

 **************************************************************************

                    xk=(  -0.65000,   0.65000,   0.65000  )

     Band symmetry, C_3v (3m)   point group:

     e(  1 -  1) =     -4.71412  eV     1   --> A_1  L_1       
     e(  2 -  2) =      3.50859  eV     1   --> A_1  L_1       
     e(  3 -  4) =     11.33527  eV     2   --> E    L_3       
     e(  5 -  5) =     22.05089  eV     1   --> A_1  L_1       
     e(  6 -  7) =     22.06997  eV     2   --> E    L_3       
     e(  8 -  8) =     29.13769  eV     1   --> A_1  L_1       

 **************************************************************************

 **************************************************************************

                    xk=(  -0.63333,   0.63333,   0.63333  )

     Band symmetry, C_3v (3m)   point group:

     e(  1 -  1) =     -4.39951  eV     1   --> A_1  L_1       
     e(  2 -  2) =      2.97842  eV     1   --> A_1  L_1       
     e(  3 -  4) =     11.25207  eV     2   --> E    L_3       
     e(  5 -  5) =     22.08129  eV     1   --> A_1  L_1       
     e(  6 -  7) =     22.09990  eV     2   --> E    L_3       
     e(  8 -  8) =     29.21535  eV     1   --> A_1  L_1       

 **************************************************************************

 **************************************************************************

                    xk=(  -0.61667,   0.61667,   0.61667  )

     Band symmetry, C_3v (3m)   point group:

     e(  1 -  1) =     -4.12451  eV     1   --> A_1  L_1       
     e(  2 -  2) =      2.45412  eV     1   --> A_1  L_1       
     e(  3 -  4) =     11.17071  eV     2   --> E    L_3       
     e(  5 -  6) =     22.08151  eV     2   --> E    L_3       
     e(  7 -  7) =     22.10724  eV     1   --> A_1  L_1       
     e(  8 -  8) =     29.26848  eV     1   --> A_1  L_1       

 **************************************************************************

 **************************************************************************

                    xk=(  -0.60000,   0.60000,   0.60000  )

     Band symmetry, C_3v (3m)   point group:

     e(  1 -  1) =     -3.79378  eV     1   --> A_1  L_1       
     e(  2 -  2) =      1.97465  eV     1   --> A_1  L_1       
     e(  3 -  4) =     11.10651  eV     2   --> E    L_3       
     e(  5 -  6) =     22.09355  eV     2   --> E    L_3       
     e(  7 -  7) =     22.13031  eV     1   --> A_1  L_1       
     e(  8 -  8) =     29.32054  eV     1   --> A_1  L_1       

 **************************************************************************

 **************************************************************************

                    xk=(  -0.58333,   0.58333,   0.58333  )

     Band symmetry, C_3v (3m)   point group:

     e(  1 -  1) =     -3.47100  eV     1   --> A_1  L_1       
     e(  2 -  2) =      1.47964  eV     1   --> A_1  L_1       
     e(  3 -  4) =     11.05166  eV     2   --> E    L_3       
     e(  5 -  6) =     22.09666  eV     2   --> E    L_3       
     e(  7 -  7) =     22.13903  eV     1   --> A_1  L_1       
     e(  8 -  8) =     29.33220  eV     1   --> A_1  L_1       

 **************************************************************************

 **************************************************************************

                    xk=(  -0.56667,   0.56667,   0.56667  )

     Band symmetry, C_3v (3m)   point group:

     e(  1 -  1) =     -3.13706  eV     1   --> A_1  L_1       
     e(  2 -  2) =      1.02778  eV     1   --> A_1  L_1       
     e(  3 -  4) =     11.00709  eV     2   --> E    L_3       
     e(  5 -  6) =     22.09943  eV     2   --> E    L_3       
     e(  7 -  7) =     22.15450  eV     1   --> A_1  L_1       
     e(  8 -  8) =     29.35470  eV     1   --> A_1  L_1       

 **************************************************************************

 **************************************************************************

                    xk=(  -0.55000,   0.55000,   0.55000  )

     Band symmetry, C_3v (3m)   point group:

     e(  1 -  1) =     -2.81503  eV     1   --> A_1  L_1       
     e(  2 -  2) =      0.61377  eV     1   --> A_1  L_1       
     e(  3 -  4) =     10.97245  eV     2   --> E    L_3       
     e(  5 -  6) =     22.10000  eV     2   --> E    L_3       
     e(  7 -  7) =     22.16720  eV     1   --> A_1  L_1       
     e(  8 -  8) =     29.36915  eV     1   --> A_1  L_1       

 **************************************************************************

 **************************************************************************

                    xk=(  -0.53333,   0.53333,   0.53333  )

     Band symmetry, C_3v (3m)   point group:

     e(  1 -  1) =     -2.52595  eV     1   --> A_1  L_1       
     e(  2 -  2) =      0.25881  eV     1   --> A_1  L_1       
     e(  3 -  4) =     10.94780  eV     2   --> E    L_3       
     e(  5 -  6) =     22.09953  eV     2   --> E    L_3       
     e(  7 -  7) =     22.17732  eV     1   --> A_1  L_1       
     e(  8 -  8) =     29.37759  eV     1   --> A_1  L_1       

 **************************************************************************

 **************************************************************************

                    xk=(  -0.51667,   0.51667,   0.51667  )

     Band symmetry, C_3v (3m)   point group:

     e(  1 -  1) =     -2.30988  eV     1   --> A_1  L_1       
     e(  2 -  2) =      0.00310  eV     1   --> A_1  L_1       
     e(  3 -  4) =     10.93316  eV     2   --> E    L_3       
     e(  5 -  6) =     22.09889  eV     2   --> E    L_3       
     e(  7 -  7) =     22.18497  eV     1   --> A_1  L_1       
     e(  8 -  8) =     29.38156  eV     1   --> A_1  L_1       

 **************************************************************************

 **************************************************************************

                    xk=(  -0.50000,   0.50000,   0.50000  )

     zone border point and non-symmorphic group 
     symmetry decomposition not available

 **************************************************************************

 **************************************************************************

                    xk=(  -0.48333,   0.51667,   0.48333  )

     point group C_s (m)    
     there are  2 classes
     the character table:

       E     s    
A'     1.00  1.00
A''    1.00 -1.00

     the symmetry operations in each class and the name of the first element:

     E        1
                                                                 
     s        2
                                                                 

     Band symmetry, C_s (m)     point group:

     e(  1 -  1) =     -2.23092  eV     1   --> A'             
     e(  2 -  2) =     -0.07729  eV     1   --> A'             
     e(  3 -  3) =     10.86549  eV     1   --> A'             
     e(  4 -  4) =     10.92153  eV     1   --> A''            
     e(  5 -  5) =     22.08181  eV     1   --> A'             
     e(  6 -  6) =     22.12941  eV     1   --> A''            
     e(  7 -  7) =     22.23682  eV     1   --> A'             
     e(  8 -  8) =     29.44447  eV     1   --> A'             

 **************************************************************************

 **************************************************************************

                    xk=(  -0.46667,   0.53333,   0.46667  )

     Band symmetry, C_s (m)     point group:

     e(  1 -  1) =     -2.24234  eV     1   --> A'             
     e(  2 -  2) =     -0.02666  eV     1   --> A'             
     e(  3 -  3) =     10.75118  eV     1   --> A'             
     e(  4 -  4) =     10.83505  eV     1   --> A''            
     e(  5 -  5) =     22.01579  eV     1   --> A'             
     e(  6 -  6) =     22.21052  eV     1   --> A''            
     e(  7 -  7) =     22.29535  eV     1   --> A'             
     e(  8 -  8) =     29.42811  eV     1   --> A'             

 **************************************************************************

 **************************************************************************

                    xk=(  -0.45000,   0.55000,   0.45000  )

     Band symmetry, C_s (m)     point group:

     e(  1 -  1) =     -2.25790  eV     1   --> A'             
     e(  2 -  2) =      0.05632  eV     1   --> A'             
     e(  3 -  3) =     10.60043  eV     1   --> A'             
     e(  4 -  4) =     10.71225  eV     1   --> A''            
     e(  5 -  5) =     21.90253  eV     1   --> A'             
     e(  6 -  6) =     22.33990  eV     1   --> A''            
     e(  7 -  7) =     22.43583  eV     1   --> A'             
     e(  8 -  8) =     29.43034  eV     1   --> A'             

 **************************************************************************

 **************************************************************************

                    xk=(  -0.43333,   0.56667,   0.43333  )

     Band symmetry, C_s (m)     point group:

     e(  1 -  1) =     -2.27449  eV     1   --> A'             
     e(  2 -  2) =      0.17107  eV     1   --> A'             
     e(  3 -  3) =     10.40822  eV     1   --> A'             
     e(  4 -  4) =     10.60891  eV     1   --> A''            
     e(  5 -  5) =     21.75819  eV     1   --> A'             
     e(  6 -  6) =     22.52961  eV     1   --> A''            
     e(  7 -  7) =     22.65169  eV     1   --> A'             
     e(  8 -  8) =     29.43636  eV     1   --> A'             

 **************************************************************************

 **************************************************************************

                    xk=(  -0.41667,   0.58333,   0.41667  )

     Band symmetry, C_s (m)     point group:

     e(  1 -  1) =     -2.29053  eV     1   --> A'             
     e(  2 -  2) =      0.31295  eV     1   --> A'             
     e(  3 -  3) =     10.17116  eV     1   --> A'             
     e(  4 -  4) =     10.48217  eV     1   --> A''            
     e(  5 -  5) =     21.58394  eV     1   --> A'             
     e(  6 -  6) =     22.76717  eV     1   --> A''            
     e(  7 -  7) =     22.92136  eV     1   --> A'             
     e(  8 -  8) =     29.40677  eV     1   --> A'             

 **************************************************************************

 **************************************************************************

                    xk=(  -0.40000,   0.60000,   0.40000  )

     Band symmetry, C_s (m)     point group:

     e(  1 -  1) =     -2.30346  eV     1   --> A'             
     e(  2 -  2) =      0.47901  eV     1   --> A'             
     e(  3 -  3) =      9.89593  eV     1   --> A'             
     e(  4 -  4) =     10.33566  eV     1   --> A''            
     e(  5 -  5) =     21.38648  eV     1   --> A'             
     e(  6 -  6) =     23.04833  eV     1   --> A''            
     e(  7 -  7) =     23.23808  eV     1   --> A'             
     e(  8 -  8) =     29.31731  eV     1   --> A'             

 **************************************************************************

 **************************************************************************

                    xk=(  -0.38333,   0.61667,   0.38333  )

     Band symmetry, C_s (m)     point group:

     e(  1 -  1) =     -2.29256  eV     1   --> A'             
     e(  2 -  2) =      0.67371  eV     1   --> A'             
     e(  3 -  3) =      9.60640  eV     1   --> A'             
     e(  4 -  4) =     10.18003  eV     1   --> A''            
     e(  5 -  5) =     21.25106  eV     1   --> A'             
     e(  6 -  6) =     23.40644  eV     1   --> A''            
     e(  7 -  7) =     23.61356  eV     1   --> A'             
     e(  8 -  8) =     29.19162  eV     1   --> A'             

 **************************************************************************

 **************************************************************************

                    xk=(  -0.36667,   0.63333,   0.36667  )

     Band symmetry, C_s (m)     point group:

     e(  1 -  1) =     -2.29427  eV     1   --> A'             
     e(  2 -  2) =      0.87957  eV     1   --> A'             
     e(  3 -  3) =      9.27416  eV     1   --> A'             
     e(  4 -  4) =     10.00508  eV     1   --> A''            
     e(  5 -  5) =     21.02059  eV     1   --> A'             
     e(  6 -  6) =     23.76055  eV     1   --> A''            
     e(  7 -  7) =     24.00500  eV     1   --> A'             
     e(  8 -  8) =     28.92409  eV     1   --> A'             

 **************************************************************************

 **************************************************************************

                    xk=(  -0.35000,   0.65000,   0.35000  )

     Band symmetry, C_s (m)     point group:

     e(  1 -  1) =     -2.30583  eV     1   --> A'             
     e(  2 -  2) =      1.10195  eV     1   --> A'             
     e(  3 -  3) =      8.92252  eV     1   --> A'             
     e(  4 -  4) =      9.81959  eV     1   --> A''            
     e(  5 -  5) =     20.77071  eV     1   --> A'             
     e(  6 -  6) =     24.14170  eV     1   --> A''            
     e(  7 -  7) =     24.41056  eV     1   --> A'             
     e(  8 -  8) =     28.53749  eV     1   --> A'             

 **************************************************************************

 **************************************************************************

                    xk=(  -0.33333,   0.66667,   0.33333  )

     Band symmetry, C_s (m)     point group:

     e(  1 -  1) =     -2.29714  eV     1   --> A'             
     e(  2 -  2) =      1.32890  eV     1   --> A'             
     e(  3 -  3) =      8.55298  eV     1   --> A'             
     e(  4 -  4) =      9.62960  eV     1   --> A''            
     e(  5 -  5) =     20.52433  eV     1   --> A'             
     e(  6 -  6) =     24.51825  eV     1   --> A''            
     e(  7 -  7) =     24.85267  eV     1   --> A'             
     e(  8 -  8) =     28.06249  eV     1   --> A'             

 **************************************************************************

 **************************************************************************

                    xk=(  -0.31667,   0.68333,   0.31667  )

     Band symmetry, C_s (m)     point group:

     e(  1 -  1) =     -2.27057  eV     1   --> A'             
     e(  2 -  2) =      1.57633  eV     1   --> A'             
     e(  3 -  3) =      8.17993  eV     1   --> A'             
     e(  4 -  4) =      9.43719  eV     1   --> A''            
     e(  5 -  5) =     20.28823  eV     1   --> A'             
     e(  6 -  6) =     24.94611  eV     1   --> A''            
     e(  7 -  7) =     25.31330  eV     1   --> A'             
     e(  8 -  8) =     27.51906  eV     1   --> A'             

 **************************************************************************

 **************************************************************************

                    xk=(  -0.30000,   0.70000,   0.30000  )

     Band symmetry, C_s (m)     point group:

     e(  1 -  1) =     -2.22601  eV     1   --> A'             
     e(  2 -  2) =      1.86162  eV     1   --> A'             
     e(  3 -  3) =      7.84085  eV     1   --> A'             
     e(  4 -  4) =      9.24457  eV     1   --> A''            
     e(  5 -  5) =     20.07301  eV     1   --> A'             
     e(  6 -  6) =     25.40175  eV     1   --> A''            
     e(  7 -  7) =     25.79805  eV     1   --> A'             
     e(  8 -  8) =     26.96517  eV     1   --> A'             

 **************************************************************************

 **************************************************************************

                    xk=(  -0.28333,   0.71667,   0.28333  )

     Band symmetry, C_s (m)     point group:

     e(  1 -  1) =     -2.17607  eV     1   --> A'             
     e(  2 -  2) =      2.11478  eV     1   --> A'             
     e(  3 -  3) =      7.44504  eV     1   --> A'             
     e(  4 -  4) =      9.05170  eV     1   --> A''            
     e(  5 -  5) =     19.83898  eV     1   --> A'             
     e(  6 -  6) =     25.85677  eV     1   --> A''            
     e(  7 -  7) =     26.23482  eV     1   --> A'             
     e(  8 -  8) =     26.32565  eV     1   --> A'             

 **************************************************************************

 **************************************************************************

                    xk=(  -0.26667,   0.73333,   0.26667  )

     Band symmetry, C_s (m)     point group:

     e(  1 -  1) =     -2.10187  eV     1   --> A'             
     e(  2 -  2) =      2.38069  eV     1   --> A'             
     e(  3 -  3) =      7.07563  eV     1   --> A'             
     e(  4 -  4) =      8.86058  eV     1   --> A''            
     e(  5 -  5) =     19.62302  eV     1   --> A'             
     e(  6 -  6) =     25.66261  eV     1   --> A'             
     e(  7 -  7) =     26.34303  eV     1   --> A''            
     e(  8 -  8) =     26.65713  eV     1   --> A'             

 **************************************************************************

 **************************************************************************

                    xk=(  -0.25000,   0.75000,   0.25000  )

     Band symmetry, C_s (m)     point group:

     e(  1 -  1) =     -2.02665  eV     1   --> A'             
     e(  2 -  2) =      2.63610  eV     1   --> A'             
     e(  3 -  3) =      6.72478  eV     1   --> A'             
     e(  4 -  4) =      8.67851  eV     1   --> A''            
     e(  5 -  5) =     19.41282  eV     1   --> A'             
     e(  6 -  6) =     24.98896  eV     1   --> A'             
     e(  7 -  7) =     26.81086  eV     1   --> A''            
     e(  8 -  8) =     27.13660  eV     1   --> A'             

 **************************************************************************

 **************************************************************************

                    xk=(  -0.23333,   0.76667,   0.23333  )

     Band symmetry, C_s (m)     point group:

     e(  1 -  1) =     -1.93826  eV     1   --> A'             
     e(  2 -  2) =      2.87521  eV     1   --> A'             
     e(  3 -  3) =      6.39978  eV     1   --> A'             
     e(  4 -  4) =      8.50328  eV     1   --> A''            
     e(  5 -  5) =     19.21304  eV     1   --> A'             
     e(  6 -  6) =     24.31267  eV     1   --> A'             
     e(  7 -  7) =     27.27784  eV     1   --> A''            
     e(  8 -  8) =     27.61189  eV     1   --> A'             

 **************************************************************************

 **************************************************************************

                    xk=(  -0.21667,   0.78333,   0.21667  )

     Band symmetry, C_s (m)     point group:

     e(  1 -  1) =     -1.83645  eV     1   --> A'             
     e(  2 -  2) =      3.08437  eV     1   --> A'             
     e(  3 -  3) =      6.12880  eV     1   --> A'             
     e(  4 -  4) =      8.33611  eV     1   --> A''            
     e(  5 -  5) =     19.03326  eV     1   --> A'             
     e(  6 -  6) =     23.64413  eV     1   --> A'             
     e(  7 -  7) =     27.73951  eV     1   --> A''            
     e(  8 -  8) =     28.08347  eV     1   --> A'             

 **************************************************************************

 **************************************************************************

                    xk=(  -0.20000,   0.80000,   0.20000  )

     Band symmetry, C_s (m)     point group:

     e(  1 -  1) =     -1.72123  eV     1   --> A'             
     e(  2 -  2) =      3.23708  eV     1   --> A'             
     e(  3 -  3) =      5.90752  eV     1   --> A'             
     e(  4 -  4) =      8.17807  eV     1   --> A''            
     e(  5 -  5) =     18.85673  eV     1   --> A'             
     e(  6 -  6) =     22.98393  eV     1   --> A'             
     e(  7 -  7) =     28.19134  eV     1   --> A''            
     e(  8 -  8) =     28.53544  eV     1   --> A'             

 **************************************************************************

 **************************************************************************

                    xk=(  -0.18333,   0.81667,   0.18333  )

     Band symmetry, C_s (m)     point group:

     e(  1 -  1) =     -1.59244  eV     1   --> A'             
     e(  2 -  2) =      3.30896  eV     1   --> A'             
     e(  3 -  3) =      5.79553  eV     1   --> A'             
     e(  4 -  4) =      8.04531  eV     1   --> A''            
     e(  5 -  5) =     18.69333  eV     1   --> A'             
     e(  6 -  6) =     22.35238  eV     1   --> A'             
     e(  7 -  7) =     28.67033  eV     1   --> A''            
     e(  8 -  8) =     28.98092  eV     1   --> A'             

 **************************************************************************

 **************************************************************************

                    xk=(  -0.16667,   0.83333,   0.16667  )

     Band symmetry, C_s (m)     point group:

     e(  1 -  1) =     -1.44870  eV     1   --> A'             
     e(  2 -  2) =      3.27637  eV     1   --> A'             
     e(  3 -  3) =      5.80126  eV     1   --> A'             
     e(  4 -  4) =      7.90743  eV     1   --> A''            
     e(  5 -  5) =     18.54881  eV     1   --> A'             
     e(  6 -  6) =     21.75008  eV     1   --> A'             
[...]
     e(  8 -  8) =     31.25797  eV     1   --> A'             

 **************************************************************************

 **************************************************************************

                    xk=(  -0.01667,   0.98333,   0.01667  )

     Band symmetry, C_s (m)     point group:

     e(  1 -  1) =      0.39194  eV     1   --> A'             
     e(  2 -  2) =      0.93340  eV     1   --> A'             
     e(  3 -  3) =      7.16364  eV     1   --> A'             
     e(  4 -  4) =      7.19776  eV     1   --> A''            
     e(  5 -  5) =     17.88729  eV     1   --> A'             
     e(  6 -  6) =     18.04270  eV     1   --> A'             
     e(  7 -  7) =     31.17687  eV     1   --> A''            
     e(  8 -  8) =     31.18152  eV     1   --> A'             

 **************************************************************************

 **************************************************************************

                    xk=(   0.00000,   1.00000,   0.00000  )

     zone border point and non-symmorphic group 
     symmetry decomposition not available

 **************************************************************************

 **************************************************************************

                    xk=(  -0.01667,   1.00000,   0.00000  )

     zone border point and non-symmorphic group 
     symmetry decomposition not available

 **************************************************************************

 **************************************************************************

                    xk=(  -0.03333,   1.00000,   0.00000  )

     zone border point and non-symmorphic group 
     symmetry decomposition not available

 **************************************************************************

 **************************************************************************

                    xk=(  -0.05000,   1.00000,   0.00000  )

     zone border point and non-symmorphic group 
     symmetry decomposition not available

 **************************************************************************

 **************************************************************************

                    xk=(  -0.06667,   1.00000,   0.00000  )

     zone border point and non-symmorphic group 
     symmetry decomposition not available

 **************************************************************************

 **************************************************************************

                    xk=(  -0.08333,   1.00000,   0.00000  )

     zone border point and non-symmorphic group 
     symmetry decomposition not available

 **************************************************************************

 **************************************************************************

                    xk=(  -0.10000,   1.00000,  -0.00000  )

     zone border point and non-symmorphic group 
     symmetry decomposition not available

 **************************************************************************

 **************************************************************************

                    xk=(  -0.11667,   1.00000,  -0.00000  )

     zone border point and non-symmorphic group 
     symmetry decomposition not available

 **************************************************************************

 **************************************************************************

                    xk=(  -0.13333,   1.00000,   0.00000  )

     zone border point and non-symmorphic group 
     symmetry decomposition not available

 **************************************************************************

 **************************************************************************

                    xk=(  -0.15000,   1.00000,   0.00000  )

     zone border point and non-symmorphic group 
     symmetry decomposition not available

 **************************************************************************

 **************************************************************************

                    xk=(  -0.16667,   1.00000,   0.00000  )

     zone border point and non-symmorphic group 
     symmetry decomposition not available

 **************************************************************************

 **************************************************************************

                    xk=(  -0.18333,   1.00000,   0.00000  )

     zone border point and non-symmorphic group 
     symmetry decomposition not available

 **************************************************************************

 **************************************************************************

                    xk=(  -0.20000,   1.00000,   0.00000  )

     zone border point and non-symmorphic group 
     symmetry decomposition not available

 **************************************************************************

 **************************************************************************

                    xk=(  -0.21667,   1.00000,   0.00000  )

     zone border point and non-symmorphic group 
     symmetry decomposition not available

 **************************************************************************

 **************************************************************************

                    xk=(  -0.23333,   1.00000,   0.00000  )

     zone border point and non-symmorphic group 
     symmetry decomposition not available

 **************************************************************************

 **************************************************************************

                    xk=(  -0.25000,   1.00000,   0.00000  )

     zone border point and non-symmorphic group 
     symmetry decomposition not available

 **************************************************************************

 **************************************************************************

                    xk=(  -0.26667,   1.00000,   0.00000  )

     zone border point and non-symmorphic group 
     symmetry decomposition not available

 **************************************************************************

 **************************************************************************

                    xk=(  -0.28333,   1.00000,   0.00000  )

     zone border point and non-symmorphic group 
     symmetry decomposition not available

 **************************************************************************

 **************************************************************************

                    xk=(  -0.30000,   1.00000,   0.00000  )

     zone border point and non-symmorphic group 
     symmetry decomposition not available

 **************************************************************************

 **************************************************************************

                    xk=(  -0.31667,   1.00000,   0.00000  )

     zone border point and non-symmorphic group 
     symmetry decomposition not available

 **************************************************************************

 **************************************************************************

                    xk=(  -0.33333,   1.00000,   0.00000  )

     zone border point and non-symmorphic group 
     symmetry decomposition not available

 **************************************************************************

 **************************************************************************

                    xk=(  -0.35000,   1.00000,  -0.00000  )

     zone border point and non-symmorphic group 
     symmetry decomposition not available

 **************************************************************************

 **************************************************************************

                    xk=(  -0.36667,   1.00000,   0.00000  )

     zone border point and non-symmorphic group 
     symmetry decomposition not available

 **************************************************************************

 **************************************************************************

                    xk=(  -0.38333,   1.00000,   0.00000  )

     zone border point and non-symmorphic group 
     symmetry decomposition not available

 **************************************************************************

 **************************************************************************

                    xk=(  -0.40000,   1.00000,   0.00000  )

     zone border point and non-symmorphic group 
     symmetry decomposition not available

 **************************************************************************

 **************************************************************************

                    xk=(  -0.41667,   1.00000,   0.00000  )

     zone border point and non-symmorphic group 
     symmetry decomposition not available

 **************************************************************************

 **************************************************************************

                    xk=(  -0.43333,   1.00000,   0.00000  )

     zone border point and non-symmorphic group 
     symmetry decomposition not available

 **************************************************************************

 **************************************************************************

                    xk=(  -0.45000,   1.00000,   0.00000  )

     zone border point and non-symmorphic group 
     symmetry decomposition not available

 **************************************************************************

 **************************************************************************

                    xk=(  -0.46667,   1.00000,   0.00000  )

     zone border point and non-symmorphic group 
     symmetry decomposition not available

 **************************************************************************

 **************************************************************************

                    xk=(  -0.48333,   1.00000,   0.00000  )

     zone border point and non-symmorphic group 
     symmetry decomposition not available

 **************************************************************************

 **************************************************************************

                    xk=(  -0.50000,   1.00000,   0.00000  )

     zone border point and non-symmorphic group 
     symmetry decomposition not available

 **************************************************************************

 **************************************************************************

                    xk=(  -0.50000,   0.98333,   0.01667  )

     zone border point and non-symmorphic group 
     symmetry decomposition not available

 **************************************************************************

 **************************************************************************

                    xk=(  -0.50000,   0.96667,   0.03333  )

     zone border point and non-symmorphic group 
     symmetry decomposition not available

 **************************************************************************

 **************************************************************************

                    xk=(  -0.50000,   0.95000,   0.05000  )

     zone border point and non-symmorphic group 
     symmetry decomposition not available

 **************************************************************************

 **************************************************************************

                    xk=(  -0.50000,   0.93333,   0.06667  )

     zone border point and non-symmorphic group 
     symmetry decomposition not available

 **************************************************************************

 **************************************************************************

                    xk=(  -0.50000,   0.91667,   0.08333  )

     zone border point and non-symmorphic group 
     symmetry decomposition not available

 **************************************************************************

 **************************************************************************

                    xk=(  -0.50000,   0.90000,   0.10000  )

     zone border point and non-symmorphic group 
     symmetry decomposition not available

 **************************************************************************

 **************************************************************************

                    xk=(  -0.50000,   0.88333,   0.11667  )

     zone border point and non-symmorphic group 
     symmetry decomposition not available

 **************************************************************************

 **************************************************************************

                    xk=(  -0.50000,   0.86667,   0.13333  )

     zone border point and non-symmorphic group 
     symmetry decomposition not available

 **************************************************************************

 **************************************************************************

                    xk=(  -0.50000,   0.85000,   0.15000  )

     zone border point and non-symmorphic group 
     symmetry decomposition not available

 **************************************************************************

 **************************************************************************

                    xk=(  -0.50000,   0.83333,   0.16667  )

     zone border point and non-symmorphic group 
     symmetry decomposition not available

 **************************************************************************

 **************************************************************************

                    xk=(  -0.50000,   0.81667,   0.18333  )

     zone border point and non-symmorphic group 
     symmetry decomposition not available

 **************************************************************************

 **************************************************************************

                    xk=(  -0.50000,   0.80000,   0.20000  )

     zone border point and non-symmorphic group 
     symmetry decomposition not available

 **************************************************************************

 **************************************************************************

                    xk=(  -0.50000,   0.78333,   0.21667  )

     zone border point and non-symmorphic group 
     symmetry decomposition not available

 **************************************************************************

 **************************************************************************

                    xk=(  -0.50000,   0.76667,   0.23333  )

     zone border point and non-symmorphic group 
     symmetry decomposition not available

 **************************************************************************

 **************************************************************************

                    xk=(  -0.50000,   0.75000,   0.25000  )

     zone border point and non-symmorphic group 
     symmetry decomposition not available

 **************************************************************************

 **************************************************************************

                    xk=(  -0.50000,   0.73333,   0.26667  )

     zone border point and non-symmorphic group 
     symmetry decomposition not available

 **************************************************************************

 **************************************************************************

                    xk=(  -0.50000,   0.71667,   0.28333  )

     zone border point and non-symmorphic group 
     symmetry decomposition not available

 **************************************************************************

 **************************************************************************

                    xk=(  -0.50000,   0.70000,   0.30000  )

     zone border point and non-symmorphic group 
     symmetry decomposition not available

 **************************************************************************

 **************************************************************************

                    xk=(  -0.50000,   0.68333,   0.31667  )

     zone border point and non-symmorphic group 
     symmetry decomposition not available

 **************************************************************************

 **************************************************************************

                    xk=(  -0.50000,   0.66667,   0.33333  )

     zone border point and non-symmorphic group 
     symmetry decomposition not available

 **************************************************************************

 **************************************************************************

                    xk=(  -0.50000,   0.65000,   0.35000  )

     zone border point and non-symmorphic group 
     symmetry decomposition not available

 **************************************************************************

 **************************************************************************

                    xk=(  -0.50000,   0.63333,   0.36667  )

     zone border point and non-symmorphic group 
     symmetry decomposition not available

 **************************************************************************

 **************************************************************************

                    xk=(  -0.50000,   0.61667,   0.38333  )

     zone border point and non-symmorphic group 
     symmetry decomposition not available

 **************************************************************************

 **************************************************************************

                    xk=(  -0.50000,   0.60000,   0.40000  )

     zone border point and non-symmorphic group 
     symmetry decomposition not available

 **************************************************************************

 **************************************************************************

                    xk=(  -0.50000,   0.58333,   0.41667  )

     zone border point and non-symmorphic group 
     symmetry decomposition not available

 **************************************************************************

 **************************************************************************

                    xk=(  -0.50000,   0.56667,   0.43333  )

     zone border point and non-symmorphic group 
     symmetry decomposition not available

 **************************************************************************

 **************************************************************************

                    xk=(  -0.50000,   0.55000,   0.45000  )

     zone border point and non-symmorphic group 
     symmetry decomposition not available

 **************************************************************************

 **************************************************************************

                    xk=(  -0.50000,   0.53333,   0.46667  )

     zone border point and non-symmorphic group 
     symmetry decomposition not available

 **************************************************************************

 **************************************************************************

                    xk=(  -0.50000,   0.51667,   0.48333  )

     zone border point and non-symmorphic group 
     symmetry decomposition not available

 **************************************************************************

 **************************************************************************

                    xk=(  -0.50000,   0.50000,   0.50000  )

     zone border point and non-symmorphic group 
     symmetry decomposition not available

 **************************************************************************
 
     BANDS        :      0.64s CPU      0.77s WALL

 
   This run was terminated on:  16:33:48  15Jul2024            

=------------------------------------------------------------------------------=
   JOB DONE.
=------------------------------------------------------------------------------=
