MPI startup(): Warning: I_MPI_PMI_LIBRARY will be ignored since the hydra process manager was found
MPI startup(): Warning: I_MPI_PMI_LIBRARY will be ignored since the hydra process manager was found
MPI startup(): Warning: I_MPI_PMI_LIBRARY will be ignored since the hydra process manager was found
MPI startup(): Warning: I_MPI_PMI_LIBRARY will be ignored since the hydra process manager was found
MPI startup(): Warning: I_MPI_PMI_LIBRARY will be ignored since the hydra process manager was found
MPI startup(): Warning: I_MPI_PMI_LIBRARY will be ignored since the hydra process manager was found
MPI startup(): Warning: I_MPI_PMI_LIBRARY will be ignored since the hydra process manager was found
MPI startup(): Warning: I_MPI_PMI_LIBRARY will be ignored since the hydra process manager was found
MPI startup(): Warning: I_MPI_PMI_LIBRARY will be ignored since the hydra process manager was found

     Program PWSCF v.7.1 starts on 21Apr2023 at 14:59: 5 

     This program is part of the open-source Quantum ESPRESSO suite
     for quantum simulation of materials; please cite
         "P. Giannozzi et al., J. Phys.:Condens. Matter 21 395502 (2009);
         "P. Giannozzi et al., J. Phys.:Condens. Matter 29 465901 (2017);
         "P. Giannozzi et al., J. Chem. Phys. 152 154105 (2020);
          URL http://www.quantum-espresso.org", 
     in publications or presentations arising from this work. More details at
     http://www.quantum-espresso.org/quote

     Parallel version (MPI), running on     9 processors

     MPI processes distributed on     1 nodes
     3555 MiB available memory on the printing compute node when the environment starts
 
     Waiting for input...
     Reading input from standard input

     Current dimensions of program PWSCF are:
     Max number of different atomic species (ntypx) = 10
     Max number of k-points (npk) =  40000
     Max angular momentum in pseudopotentials (lmaxx) =  4
     file O.pz-rrkjus.UPF: wavefunction(s)  2S renormalized

     gamma-point specific algorithms are used
 
     R & G space division:  proc/nbgrp/npool/nimage =       9
     Subspace diagonalization in iterative solution of the eigenvalue problem:
     a serial algorithm will be used

 
     Parallelization info
     --------------------
     sticks:   dense  smooth     PW     G-vecs:    dense   smooth      PW
     Min         250     250     62                 9030     9030    1124
     Max         252     252     64                 9038     9038    1128
     Sum        2253    2253    569                81313    81313   10131
 
     Using Slab Decomposition
 


     bravais-lattice index     =            1
     lattice parameter (alat)  =      18.8973  a.u.
     unit-cell volume          =    6748.3345 (a.u.)^3
     number of atoms/cell      =            3
     number of atomic types    =            2
     number of electrons       =        16.00
     number of Kohn-Sham states=            8
     kinetic-energy cutoff     =      20.0000  Ry
     charge density cutoff     =      80.0000  Ry
     scf convergence threshold =      1.0E-06
     mixing beta               =       0.7000
     number of iterations used =            8  plain     mixing
     Exchange-correlation=  SLA  PZ   NOGX NOGC
                           (   1   1   0   0   0   0   0)

     celldm(1)=  18.897261  celldm(2)=   0.000000  celldm(3)=   0.000000
     celldm(4)=   0.000000  celldm(5)=   0.000000  celldm(6)=   0.000000

     crystal axes: (cart. coord. in units of alat)
               a(1) = (   1.000000   0.000000   0.000000 )  
               a(2) = (   0.000000   1.000000   0.000000 )  
               a(3) = (   0.000000   0.000000   1.000000 )  

     reciprocal axes: (cart. coord. in units 2 pi/alat)
               b(1) = (  1.000000  0.000000  0.000000 )  
               b(2) = (  0.000000  1.000000  0.000000 )  
               b(3) = (  0.000000  0.000000  1.000000 )  


     PseudoPot. # 1 for C  read from file:
     ../../../pseudo/C.pz-vbc.UPF
     MD5 check sum: ab53dd623bfeb79c5a7b057bc96eae20
     Pseudo is Norm-conserving, Zval =  4.0
     Generated by new atomic code, or converted to UPF format
     Using radial grid of  269 points,  1 beta functions with: 
                l(1) =   0

     PseudoPot. # 2 for O  read from file:
     ../../../pseudo/O.pz-rrkjus.UPF
     MD5 check sum: 24fb942a68ef5d262e498166c462ef4a
     Pseudo is Ultrasoft, Zval =  6.0
     Generated by new atomic code, or converted to UPF format
     Using radial grid of 1269 points,  4 beta functions with: 
                l(1) =   0
                l(2) =   0
                l(3) =   1
                l(4) =   1
     Q(r) pseudized with 0 coefficients 


     atomic species   valence    mass     pseudopotential
        C              4.00    12.01100     C ( 1.00)
        O              6.00    15.99990     O ( 1.00)

     16 Sym. Ops., with inversion, found



   Cartesian axes

     site n.     atom                  positions (alat units)
         1           C   tau(   1) = (   0.0000000   0.0000000   0.0000000  )
         2           O   tau(   2) = (   0.0000000   0.0000000   0.1161500  )
         3           O   tau(   3) = (   0.0000000   0.0000000  -0.1161500  )

     number of k points=     1
                       cart. coord. in units 2pi/alat
        k(    1) = (   0.0000000   0.0000000   0.0000000), wk =   2.0000000

     Dense  grid:    40657 G-vectors     FFT dimensions: (  54,  54,  54)

     Estimated max dynamical RAM per process >       6.95 MB

     Estimated total dynamical RAM >      62.51 MB

     Initial potential from superposition of free atoms

     starting charge      16.0000, renormalised to      16.0000

     negative rho (up, down):  5.354E-01 0.000E+00
     Starting wfcs are   12 randomized atomic wfcs

     total cpu time spent up to now is        0.1 secs

     Self-consistent Calculation

     iteration #  1     ecut=    20.00 Ry     beta= 0.70
     Davidson diagonalization with overlap
     ethr =  1.00E-02,  avg # of iterations =  2.0

     negative rho (up, down):  5.833E-01 0.000E+00

     total cpu time spent up to now is        0.2 secs

     total energy              =     -74.35259102 Ry
     estimated scf accuracy    <       0.52846049 Ry

     iteration #  2     ecut=    20.00 Ry     beta= 0.70
     Davidson diagonalization with overlap
     ethr =  3.30E-03,  avg # of iterations =  3.0

     negative rho (up, down):  5.234E-01 0.000E+00

     total cpu time spent up to now is        0.2 secs

     total energy              =     -74.50866290 Ry
     estimated scf accuracy    <       0.47002782 Ry

     iteration #  3     ecut=    20.00 Ry     beta= 0.70
     Davidson diagonalization with overlap
     ethr =  2.94E-03,  avg # of iterations =  2.0

     negative rho (up, down):  5.032E-01 0.000E+00

     total cpu time spent up to now is        0.2 secs

     total energy              =     -74.56764189 Ry
     estimated scf accuracy    <       0.01299243 Ry

     iteration #  4     ecut=    20.00 Ry     beta= 0.70
     Davidson diagonalization with overlap
     ethr =  8.12E-05,  avg # of iterations =  4.0

     negative rho (up, down):  5.055E-01 0.000E+00

     total cpu time spent up to now is        0.2 secs

     total energy              =     -74.58086271 Ry
     estimated scf accuracy    <       0.02455304 Ry

     iteration #  5     ecut=    20.00 Ry     beta= 0.70
     Davidson diagonalization with overlap
     ethr =  8.12E-05,  avg # of iterations =  2.0

     negative rho (up, down):  5.082E-01 0.000E+00

     total cpu time spent up to now is        0.2 secs

     total energy              =     -74.57842180 Ry
     estimated scf accuracy    <       0.00844962 Ry

     iteration #  6     ecut=    20.00 Ry     beta= 0.70
     Davidson diagonalization with overlap
     ethr =  5.28E-05,  avg # of iterations =  2.0

     negative rho (up, down):  5.086E-01 0.000E+00

     total cpu time spent up to now is        0.3 secs

     total energy              =     -74.57946765 Ry
     estimated scf accuracy    <       0.00039723 Ry

     iteration #  7     ecut=    20.00 Ry     beta= 0.70
     Davidson diagonalization with overlap
     ethr =  2.48E-06,  avg # of iterations =  2.0

     negative rho (up, down):  5.087E-01 0.000E+00

     total cpu time spent up to now is        0.3 secs

     total energy              =     -74.57951804 Ry
     estimated scf accuracy    <       0.00008151 Ry

     iteration #  8     ecut=    20.00 Ry     beta= 0.70
     Davidson diagonalization with overlap
     ethr =  5.09E-07,  avg # of iterations =  2.0

     negative rho (up, down):  5.090E-01 0.000E+00

     total cpu time spent up to now is        0.3 secs

     total energy              =     -74.57950288 Ry
     estimated scf accuracy    <       0.00004429 Ry

     iteration #  9     ecut=    20.00 Ry     beta= 0.70
     Davidson diagonalization with overlap
     ethr =  2.77E-07,  avg # of iterations =  2.0

     negative rho (up, down):  5.089E-01 0.000E+00

     total cpu time spent up to now is        0.3 secs

     End of self-consistent calculation

          k = 0.0000 0.0000 0.0000 (  5066 PWs)   bands (ev):

   -29.5368 -28.4429 -13.6068 -12.7718 -12.7718 -12.2651  -9.1539  -9.1539

     highest occupied level (ev):    -9.1539

!    total energy              =     -74.57951413 Ry
     estimated scf accuracy    <       0.00000033 Ry

     The total energy is the sum of the following terms:
     one-electron contribution =    -163.39166453 Ry
     hartree contribution      =      83.34875550 Ry
     xc contribution           =     -16.85084072 Ry
     ewald contribution        =      22.31423562 Ry

     convergence has been achieved in   9 iterations
 
     init_run     :      0.05s CPU      0.07s WALL (       1 calls)
     electrons    :      0.14s CPU      0.16s WALL (       1 calls)

     Called by init_run:
     wfcinit      :      0.00s CPU      0.00s WALL (       1 calls)
     potinit      :      0.01s CPU      0.01s WALL (       1 calls)
     hinit0       :      0.03s CPU      0.04s WALL (       1 calls)

     Called by electrons:
     c_bands      :      0.05s CPU      0.06s WALL (       9 calls)
     sum_band     :      0.04s CPU      0.05s WALL (       9 calls)
     v_of_rho     :      0.01s CPU      0.01s WALL (      10 calls)
     newd         :      0.03s CPU      0.03s WALL (      10 calls)
     mix_rho      :      0.01s CPU      0.01s WALL (       9 calls)

     Called by c_bands:
     init_us_2    :      0.00s CPU      0.00s WALL (      19 calls)
     init_us_2:cp :      0.00s CPU      0.00s WALL (      19 calls)
     regterg      :      0.04s CPU      0.05s WALL (       9 calls)

     Called by *egterg:
     rdiaghg      :      0.00s CPU      0.00s WALL (      30 calls)
     h_psi        :      0.04s CPU      0.05s WALL (      31 calls)
     s_psi        :      0.00s CPU      0.00s WALL (      31 calls)
     g_psi        :      0.00s CPU      0.00s WALL (      21 calls)

     Called by h_psi:
     h_psi:calbec :      0.00s CPU      0.00s WALL (      31 calls)
     vloc_psi     :      0.03s CPU      0.04s WALL (      31 calls)
     add_vuspsi   :      0.00s CPU      0.00s WALL (      31 calls)

     General routines
     calbec       :      0.00s CPU      0.00s WALL (      40 calls)
     fft          :      0.02s CPU      0.03s WALL (      39 calls)
     ffts         :      0.00s CPU      0.00s WALL (       9 calls)
     fftw         :      0.04s CPU      0.04s WALL (     244 calls)
 
     Parallel routines
 
     PWSCF        :      0.26s CPU      0.31s WALL

 
   This run was terminated on:  14:59: 5  21Apr2023            

=------------------------------------------------------------------------------=
   JOB DONE.
=------------------------------------------------------------------------------=
