MPI startup(): Warning: I_MPI_PMI_LIBRARY will be ignored since the hydra process manager was found
MPI startup(): Warning: I_MPI_PMI_LIBRARY will be ignored since the hydra process manager was found
MPI startup(): Warning: I_MPI_PMI_LIBRARY will be ignored since the hydra process manager was found
MPI startup(): Warning: I_MPI_PMI_LIBRARY will be ignored since the hydra process manager was found
MPI startup(): Warning: I_MPI_PMI_LIBRARY will be ignored since the hydra process manager was found
MPI startup(): Warning: I_MPI_PMI_LIBRARY will be ignored since the hydra process manager was found
MPI startup(): Warning: I_MPI_PMI_LIBRARY will be ignored since the hydra process manager was found
MPI startup(): Warning: I_MPI_PMI_LIBRARY will be ignored since the hydra process manager was found
MPI startup(): Warning: I_MPI_PMI_LIBRARY will be ignored since the hydra process manager was found

     Program PWSCF v.7.1 starts on 21Apr2023 at 14:59: 6 

     This program is part of the open-source Quantum ESPRESSO suite
     for quantum simulation of materials; please cite
         "P. Giannozzi et al., J. Phys.:Condens. Matter 21 395502 (2009);
         "P. Giannozzi et al., J. Phys.:Condens. Matter 29 465901 (2017);
         "P. Giannozzi et al., J. Chem. Phys. 152 154105 (2020);
          URL http://www.quantum-espresso.org", 
     in publications or presentations arising from this work. More details at
     http://www.quantum-espresso.org/quote

     Parallel version (MPI), running on     9 processors

     MPI processes distributed on     1 nodes
     3556 MiB available memory on the printing compute node when the environment starts
 
     Waiting for input...
     Reading input from standard input

     Current dimensions of program PWSCF are:
     Max number of different atomic species (ntypx) = 10
     Max number of k-points (npk) =  40000
     Max angular momentum in pseudopotentials (lmaxx) =  4
     file O.pz-rrkjus.UPF: wavefunction(s)  2S renormalized

     gamma-point specific algorithms are used
 
     R & G space division:  proc/nbgrp/npool/nimage =       9
     Subspace diagonalization in iterative solution of the eigenvalue problem:
     a serial algorithm will be used

 
     Parallelization info
     --------------------
     sticks:   dense  smooth     PW     G-vecs:    dense   smooth      PW
     Min         316     316     78                12644    12644    1580
     Max         317     317     82                12648    12648    1584
     Sum        2845    2845    717               113801   113801   14243
 
     Using Slab Decomposition
 


     bravais-lattice index     =            1
     lattice parameter (alat)  =      18.8973  a.u.
     unit-cell volume          =    6748.3345 (a.u.)^3
     number of atoms/cell      =            3
     number of atomic types    =            2
     number of electrons       =        16.00
     number of Kohn-Sham states=            8
     kinetic-energy cutoff     =      25.0000  Ry
     charge density cutoff     =     100.0000  Ry
     scf convergence threshold =      1.0E-06
     mixing beta               =       0.7000
     number of iterations used =            8  plain     mixing
     Exchange-correlation=  SLA  PZ   NOGX NOGC
                           (   1   1   0   0   0   0   0)

     celldm(1)=  18.897261  celldm(2)=   0.000000  celldm(3)=   0.000000
     celldm(4)=   0.000000  celldm(5)=   0.000000  celldm(6)=   0.000000

     crystal axes: (cart. coord. in units of alat)
               a(1) = (   1.000000   0.000000   0.000000 )  
               a(2) = (   0.000000   1.000000   0.000000 )  
               a(3) = (   0.000000   0.000000   1.000000 )  

     reciprocal axes: (cart. coord. in units 2 pi/alat)
               b(1) = (  1.000000  0.000000  0.000000 )  
               b(2) = (  0.000000  1.000000  0.000000 )  
               b(3) = (  0.000000  0.000000  1.000000 )  


     PseudoPot. # 1 for C  read from file:
     ../../../pseudo/C.pz-vbc.UPF
     MD5 check sum: ab53dd623bfeb79c5a7b057bc96eae20
     Pseudo is Norm-conserving, Zval =  4.0
     Generated by new atomic code, or converted to UPF format
     Using radial grid of  269 points,  1 beta functions with: 
                l(1) =   0

     PseudoPot. # 2 for O  read from file:
     ../../../pseudo/O.pz-rrkjus.UPF
     MD5 check sum: 24fb942a68ef5d262e498166c462ef4a
     Pseudo is Ultrasoft, Zval =  6.0
     Generated by new atomic code, or converted to UPF format
     Using radial grid of 1269 points,  4 beta functions with: 
                l(1) =   0
                l(2) =   0
                l(3) =   1
                l(4) =   1
     Q(r) pseudized with 0 coefficients 


     atomic species   valence    mass     pseudopotential
        C              4.00    12.01100     C ( 1.00)
        O              6.00    15.99990     O ( 1.00)

     16 Sym. Ops., with inversion, found



   Cartesian axes

     site n.     atom                  positions (alat units)
         1           C   tau(   1) = (   0.0000000   0.0000000   0.0000000  )
         2           O   tau(   2) = (   0.0000000   0.0000000   0.1161500  )
         3           O   tau(   3) = (   0.0000000   0.0000000  -0.1161500  )

     number of k points=     1
                       cart. coord. in units 2pi/alat
        k(    1) = (   0.0000000   0.0000000   0.0000000), wk =   2.0000000

     Dense  grid:    56901 G-vectors     FFT dimensions: (  64,  64,  64)

     Estimated max dynamical RAM per process >      10.18 MB

     Estimated total dynamical RAM >      91.58 MB

     Initial potential from superposition of free atoms

     starting charge      16.0000, renormalised to      16.0000

     negative rho (up, down):  2.190E-01 0.000E+00
     Starting wfcs are   12 randomized atomic wfcs

     total cpu time spent up to now is        0.2 secs

     Self-consistent Calculation

     iteration #  1     ecut=    25.00 Ry     beta= 0.70
     Davidson diagonalization with overlap
     ethr =  1.00E-02,  avg # of iterations =  2.0

     negative rho (up, down):  2.593E-01 0.000E+00

     total cpu time spent up to now is        0.2 secs

     total energy              =     -74.58848522 Ry
     estimated scf accuracy    <       0.58170937 Ry

     iteration #  2     ecut=    25.00 Ry     beta= 0.70
     Davidson diagonalization with overlap
     ethr =  3.64E-03,  avg # of iterations =  3.0

     negative rho (up, down):  2.293E-01 0.000E+00

     total cpu time spent up to now is        0.2 secs

     total energy              =     -74.78092360 Ry
     estimated scf accuracy    <       0.55659172 Ry

     iteration #  3     ecut=    25.00 Ry     beta= 0.70
     Davidson diagonalization with overlap
     ethr =  3.48E-03,  avg # of iterations =  2.0

     negative rho (up, down):  2.203E-01 0.000E+00

     total cpu time spent up to now is        0.3 secs

     total energy              =     -74.83333208 Ry
     estimated scf accuracy    <       0.02543056 Ry

     iteration #  4     ecut=    25.00 Ry     beta= 0.70
     Davidson diagonalization with overlap
     ethr =  1.59E-04,  avg # of iterations =  5.0

     negative rho (up, down):  2.220E-01 0.000E+00

     total cpu time spent up to now is        0.3 secs

     total energy              =     -74.85817015 Ry
     estimated scf accuracy    <       0.05383050 Ry

     iteration #  5     ecut=    25.00 Ry     beta= 0.70
     Davidson diagonalization with overlap
     ethr =  1.59E-04,  avg # of iterations =  2.0

     negative rho (up, down):  2.236E-01 0.000E+00

     total cpu time spent up to now is        0.3 secs

     total energy              =     -74.85465745 Ry
     estimated scf accuracy    <       0.01768773 Ry

     iteration #  6     ecut=    25.00 Ry     beta= 0.70
     Davidson diagonalization with overlap
     ethr =  1.11E-04,  avg # of iterations =  2.0

     negative rho (up, down):  2.240E-01 0.000E+00

     total cpu time spent up to now is        0.3 secs

     total energy              =     -74.85584805 Ry
     estimated scf accuracy    <       0.00227686 Ry

     iteration #  7     ecut=    25.00 Ry     beta= 0.70
     Davidson diagonalization with overlap
     ethr =  1.42E-05,  avg # of iterations =  2.0

     negative rho (up, down):  2.243E-01 0.000E+00

     total cpu time spent up to now is        0.4 secs

     total energy              =     -74.85595874 Ry
     estimated scf accuracy    <       0.00051180 Ry

     iteration #  8     ecut=    25.00 Ry     beta= 0.70
     Davidson diagonalization with overlap
     ethr =  3.20E-06,  avg # of iterations =  2.0

     negative rho (up, down):  2.247E-01 0.000E+00

     total cpu time spent up to now is        0.4 secs

     total energy              =     -74.85597635 Ry
     estimated scf accuracy    <       0.00007412 Ry

     iteration #  9     ecut=    25.00 Ry     beta= 0.70
     Davidson diagonalization with overlap
     ethr =  4.63E-07,  avg # of iterations =  3.0

     negative rho (up, down):  2.245E-01 0.000E+00

     total cpu time spent up to now is        0.4 secs

     total energy              =     -74.85600418 Ry
     estimated scf accuracy    <       0.00002826 Ry

     iteration # 10     ecut=    25.00 Ry     beta= 0.70
     Davidson diagonalization with overlap
     ethr =  1.77E-07,  avg # of iterations =  3.0

     negative rho (up, down):  2.245E-01 0.000E+00

     total cpu time spent up to now is        0.4 secs

     total energy              =     -74.85601229 Ry
     estimated scf accuracy    <       0.00000146 Ry

     iteration # 11     ecut=    25.00 Ry     beta= 0.70
     Davidson diagonalization with overlap
     ethr =  9.12E-09,  avg # of iterations =  4.0

     negative rho (up, down):  2.246E-01 0.000E+00

     total cpu time spent up to now is        0.5 secs

     total energy              =     -74.85601078 Ry
     estimated scf accuracy    <       0.00000413 Ry

     iteration # 12     ecut=    25.00 Ry     beta= 0.70
     Davidson diagonalization with overlap
     ethr =  9.12E-09,  avg # of iterations =  3.0

     negative rho (up, down):  2.246E-01 0.000E+00

     total cpu time spent up to now is        0.5 secs

     End of self-consistent calculation

          k = 0.0000 0.0000 0.0000 (  7122 PWs)   bands (ev):

   -29.2552 -28.2479 -13.4301 -12.7814 -12.7814 -12.3191  -9.1199  -9.1199

     highest occupied level (ev):    -9.1199

!    total energy              =     -74.85601142 Ry
     estimated scf accuracy    <       0.00000004 Ry

     The total energy is the sum of the following terms:
     one-electron contribution =    -164.00611354 Ry
     hartree contribution      =      83.73829547 Ry
     xc contribution           =     -16.90242899 Ry
     ewald contribution        =      22.31423564 Ry

     convergence has been achieved in  12 iterations
 
     init_run     :      0.07s CPU      0.08s WALL (       1 calls)
     electrons    :      0.28s CPU      0.33s WALL (       1 calls)

     Called by init_run:
     wfcinit      :      0.01s CPU      0.01s WALL (       1 calls)
     potinit      :      0.02s CPU      0.02s WALL (       1 calls)
     hinit0       :      0.03s CPU      0.03s WALL (       1 calls)

     Called by electrons:
     c_bands      :      0.11s CPU      0.13s WALL (      12 calls)
     sum_band     :      0.08s CPU      0.10s WALL (      12 calls)
     v_of_rho     :      0.02s CPU      0.03s WALL (      13 calls)
     newd         :      0.05s CPU      0.06s WALL (      13 calls)
     mix_rho      :      0.02s CPU      0.02s WALL (      12 calls)

     Called by c_bands:
     init_us_2    :      0.00s CPU      0.00s WALL (      25 calls)
     init_us_2:cp :      0.00s CPU      0.00s WALL (      25 calls)
     regterg      :      0.10s CPU      0.12s WALL (      12 calls)

     Called by *egterg:
     rdiaghg      :      0.01s CPU      0.01s WALL (      45 calls)
     h_psi        :      0.09s CPU      0.11s WALL (      46 calls)
     s_psi        :      0.00s CPU      0.00s WALL (      46 calls)
     g_psi        :      0.00s CPU      0.00s WALL (      33 calls)

     Called by h_psi:
     h_psi:calbec :      0.00s CPU      0.01s WALL (      46 calls)
     vloc_psi     :      0.08s CPU      0.10s WALL (      46 calls)
     add_vuspsi   :      0.00s CPU      0.00s WALL (      46 calls)

     General routines
     calbec       :      0.01s CPU      0.01s WALL (      58 calls)
     fft          :      0.03s CPU      0.04s WALL (      51 calls)
     ffts         :      0.00s CPU      0.01s WALL (      12 calls)
     fftw         :      0.09s CPU      0.11s WALL (     338 calls)
 
     Parallel routines
 
     PWSCF        :      0.41s CPU      0.48s WALL

 
   This run was terminated on:  14:59: 6  21Apr2023            

=------------------------------------------------------------------------------=
   JOB DONE.
=------------------------------------------------------------------------------=
