MPI startup(): Warning: I_MPI_PMI_LIBRARY will be ignored since the hydra process manager was found
MPI startup(): Warning: I_MPI_PMI_LIBRARY will be ignored since the hydra process manager was found
MPI startup(): Warning: I_MPI_PMI_LIBRARY will be ignored since the hydra process manager was found
MPI startup(): Warning: I_MPI_PMI_LIBRARY will be ignored since the hydra process manager was found
MPI startup(): Warning: I_MPI_PMI_LIBRARY will be ignored since the hydra process manager was found
MPI startup(): Warning: I_MPI_PMI_LIBRARY will be ignored since the hydra process manager was found
MPI startup(): Warning: I_MPI_PMI_LIBRARY will be ignored since the hydra process manager was found
MPI startup(): Warning: I_MPI_PMI_LIBRARY will be ignored since the hydra process manager was found
MPI startup(): Warning: I_MPI_PMI_LIBRARY will be ignored since the hydra process manager was found

     Program PWSCF v.7.1 starts on 21Apr2023 at 14:59: 8 

     This program is part of the open-source Quantum ESPRESSO suite
     for quantum simulation of materials; please cite
         "P. Giannozzi et al., J. Phys.:Condens. Matter 21 395502 (2009);
         "P. Giannozzi et al., J. Phys.:Condens. Matter 29 465901 (2017);
         "P. Giannozzi et al., J. Chem. Phys. 152 154105 (2020);
          URL http://www.quantum-espresso.org", 
     in publications or presentations arising from this work. More details at
     http://www.quantum-espresso.org/quote

     Parallel version (MPI), running on     9 processors

     MPI processes distributed on     1 nodes
     3555 MiB available memory on the printing compute node when the environment starts
 
     Waiting for input...
     Reading input from standard input

     Current dimensions of program PWSCF are:
     Max number of different atomic species (ntypx) = 10
     Max number of k-points (npk) =  40000
     Max angular momentum in pseudopotentials (lmaxx) =  4
     file O.pz-rrkjus.UPF: wavefunction(s)  2S renormalized

     gamma-point specific algorithms are used
 
     R & G space division:  proc/nbgrp/npool/nimage =       9
     Subspace diagonalization in iterative solution of the eigenvalue problem:
     a serial algorithm will be used

 
     Parallelization info
     --------------------
     sticks:   dense  smooth     PW     G-vecs:    dense   smooth      PW
     Min         442     442    109                21002    21002    2618
     Max         444     444    110                21012    21012    2626
     Sum        3985    3985    989               189047   189047   23583
 
     Using Slab Decomposition
 


     bravais-lattice index     =            1
     lattice parameter (alat)  =      18.8973  a.u.
     unit-cell volume          =    6748.3345 (a.u.)^3
     number of atoms/cell      =            3
     number of atomic types    =            2
     number of electrons       =        16.00
     number of Kohn-Sham states=            8
     kinetic-energy cutoff     =      35.0000  Ry
     charge density cutoff     =     140.0000  Ry
     scf convergence threshold =      1.0E-06
     mixing beta               =       0.7000
     number of iterations used =            8  plain     mixing
     Exchange-correlation=  SLA  PZ   NOGX NOGC
                           (   1   1   0   0   0   0   0)

     celldm(1)=  18.897261  celldm(2)=   0.000000  celldm(3)=   0.000000
     celldm(4)=   0.000000  celldm(5)=   0.000000  celldm(6)=   0.000000

     crystal axes: (cart. coord. in units of alat)
               a(1) = (   1.000000   0.000000   0.000000 )  
               a(2) = (   0.000000   1.000000   0.000000 )  
               a(3) = (   0.000000   0.000000   1.000000 )  

     reciprocal axes: (cart. coord. in units 2 pi/alat)
               b(1) = (  1.000000  0.000000  0.000000 )  
               b(2) = (  0.000000  1.000000  0.000000 )  
               b(3) = (  0.000000  0.000000  1.000000 )  


     PseudoPot. # 1 for C  read from file:
     ../../../pseudo/C.pz-vbc.UPF
     MD5 check sum: ab53dd623bfeb79c5a7b057bc96eae20
     Pseudo is Norm-conserving, Zval =  4.0
     Generated by new atomic code, or converted to UPF format
     Using radial grid of  269 points,  1 beta functions with: 
                l(1) =   0

     PseudoPot. # 2 for O  read from file:
     ../../../pseudo/O.pz-rrkjus.UPF
     MD5 check sum: 24fb942a68ef5d262e498166c462ef4a
     Pseudo is Ultrasoft, Zval =  6.0
     Generated by new atomic code, or converted to UPF format
     Using radial grid of 1269 points,  4 beta functions with: 
                l(1) =   0
                l(2) =   0
                l(3) =   1
                l(4) =   1
     Q(r) pseudized with 0 coefficients 


     atomic species   valence    mass     pseudopotential
        C              4.00    12.01100     C ( 1.00)
        O              6.00    15.99990     O ( 1.00)

     16 Sym. Ops., with inversion, found



   Cartesian axes

     site n.     atom                  positions (alat units)
         1           C   tau(   1) = (   0.0000000   0.0000000   0.0000000  )
         2           O   tau(   2) = (   0.0000000   0.0000000   0.1161500  )
         3           O   tau(   3) = (   0.0000000   0.0000000  -0.1161500  )

     number of k points=     1
                       cart. coord. in units 2pi/alat
        k(    1) = (   0.0000000   0.0000000   0.0000000), wk =   2.0000000

     Dense  grid:    94524 G-vectors     FFT dimensions: (  72,  72,  72)

     Estimated max dynamical RAM per process >      15.79 MB

     Estimated total dynamical RAM >     142.14 MB

     Initial potential from superposition of free atoms

     starting charge      16.0000, renormalised to      16.0000

     negative rho (up, down):  3.482E-02 0.000E+00
     Starting wfcs are   12 randomized atomic wfcs

     total cpu time spent up to now is        0.1 secs

     Self-consistent Calculation

     iteration #  1     ecut=    35.00 Ry     beta= 0.70
     Davidson diagonalization with overlap
     ethr =  1.00E-02,  avg # of iterations =  2.0

     negative rho (up, down):  4.282E-02 0.000E+00

     total cpu time spent up to now is        0.2 secs

     total energy              =     -74.75174823 Ry
     estimated scf accuracy    <       0.54614301 Ry

     iteration #  2     ecut=    35.00 Ry     beta= 0.70
     Davidson diagonalization with overlap
     ethr =  3.41E-03,  avg # of iterations =  4.0

     negative rho (up, down):  3.847E-02 0.000E+00

     total cpu time spent up to now is        0.2 secs

     total energy              =     -74.89185582 Ry
     estimated scf accuracy    <       0.68437120 Ry

     iteration #  3     ecut=    35.00 Ry     beta= 0.70
     Davidson diagonalization with overlap
     ethr =  3.41E-03,  avg # of iterations =  2.0

     negative rho (up, down):  3.762E-02 0.000E+00

     total cpu time spent up to now is        0.3 secs

     total energy              =     -74.99741341 Ry
     estimated scf accuracy    <       0.00881317 Ry

     iteration #  4     ecut=    35.00 Ry     beta= 0.70
     Davidson diagonalization with overlap
     ethr =  5.51E-05,  avg # of iterations =  5.0

     negative rho (up, down):  3.835E-02 0.000E+00

     total cpu time spent up to now is        0.3 secs

     total energy              =     -75.00241827 Ry
     estimated scf accuracy    <       0.00913067 Ry

     iteration #  5     ecut=    35.00 Ry     beta= 0.70
     Davidson diagonalization with overlap
     ethr =  5.51E-05,  avg # of iterations =  3.0

     negative rho (up, down):  3.818E-02 0.000E+00

     total cpu time spent up to now is        0.4 secs

     total energy              =     -75.00493654 Ry
     estimated scf accuracy    <       0.00058599 Ry

     iteration #  6     ecut=    35.00 Ry     beta= 0.70
     Davidson diagonalization with overlap
     ethr =  3.66E-06,  avg # of iterations =  2.0

     negative rho (up, down):  3.817E-02 0.000E+00

     total cpu time spent up to now is        0.4 secs

     total energy              =     -75.00499126 Ry
     estimated scf accuracy    <       0.00003965 Ry

     iteration #  7     ecut=    35.00 Ry     beta= 0.70
     Davidson diagonalization with overlap
     ethr =  2.48E-07,  avg # of iterations =  5.0

     negative rho (up, down):  3.820E-02 0.000E+00

     total cpu time spent up to now is        0.4 secs

     total energy              =     -75.00501104 Ry
     estimated scf accuracy    <       0.00001067 Ry

     iteration #  8     ecut=    35.00 Ry     beta= 0.70
     Davidson diagonalization with overlap
     ethr =  6.67E-08,  avg # of iterations =  1.0

     negative rho (up, down):  3.822E-02 0.000E+00

     total cpu time spent up to now is        0.5 secs

     total energy              =     -75.00500893 Ry
     estimated scf accuracy    <       0.00000418 Ry

     iteration #  9     ecut=    35.00 Ry     beta= 0.70
     Davidson diagonalization with overlap
     ethr =  2.61E-08,  avg # of iterations =  3.0

     negative rho (up, down):  3.822E-02 0.000E+00

     total cpu time spent up to now is        0.5 secs

     total energy              =     -75.00501064 Ry
     estimated scf accuracy    <       0.00000128 Ry

     iteration # 10     ecut=    35.00 Ry     beta= 0.70
     Davidson diagonalization with overlap
     ethr =  7.97E-09,  avg # of iterations =  2.0

     negative rho (up, down):  3.822E-02 0.000E+00

     total cpu time spent up to now is        0.5 secs

     End of self-consistent calculation

          k = 0.0000 0.0000 0.0000 ( 11792 PWs)   bands (ev):

   -29.1174 -28.1971 -13.4078 -12.7870 -12.7870 -12.3971  -9.0859  -9.0859

     highest occupied level (ev):    -9.0859

!    total energy              =     -75.00501053 Ry
     estimated scf accuracy    <       0.00000023 Ry

     The total energy is the sum of the following terms:
     one-electron contribution =    -164.32071209 Ry
     hartree contribution      =      83.92014270 Ry
     xc contribution           =     -16.91867678 Ry
     ewald contribution        =      22.31423564 Ry

     convergence has been achieved in  10 iterations
 
     init_run     :      0.06s CPU      0.08s WALL (       1 calls)
     electrons    :      0.33s CPU      0.38s WALL (       1 calls)

     Called by init_run:
     wfcinit      :      0.01s CPU      0.01s WALL (       1 calls)
     potinit      :      0.02s CPU      0.02s WALL (       1 calls)
     hinit0       :      0.02s CPU      0.02s WALL (       1 calls)

     Called by electrons:
     c_bands      :      0.10s CPU      0.13s WALL (      10 calls)
     sum_band     :      0.10s CPU      0.12s WALL (      10 calls)
     v_of_rho     :      0.03s CPU      0.03s WALL (      11 calls)
     newd         :      0.07s CPU      0.08s WALL (      11 calls)
     mix_rho      :      0.02s CPU      0.03s WALL (      10 calls)

     Called by c_bands:
     init_us_2    :      0.00s CPU      0.00s WALL (      21 calls)
     init_us_2:cp :      0.00s CPU      0.00s WALL (      21 calls)
     regterg      :      0.10s CPU      0.12s WALL (      10 calls)

     Called by *egterg:
     rdiaghg      :      0.00s CPU      0.01s WALL (      39 calls)
     h_psi        :      0.09s CPU      0.11s WALL (      40 calls)
     s_psi        :      0.00s CPU      0.00s WALL (      40 calls)
     g_psi        :      0.00s CPU      0.00s WALL (      29 calls)

     Called by h_psi:
     h_psi:calbec :      0.00s CPU      0.01s WALL (      40 calls)
     vloc_psi     :      0.08s CPU      0.10s WALL (      40 calls)
     add_vuspsi   :      0.00s CPU      0.00s WALL (      40 calls)

     General routines
     calbec       :      0.01s CPU      0.01s WALL (      50 calls)
     fft          :      0.03s CPU      0.05s WALL (      43 calls)
     ffts         :      0.00s CPU      0.01s WALL (      10 calls)
     fftw         :      0.08s CPU      0.10s WALL (     294 calls)
 
     Parallel routines
 
     PWSCF        :      0.44s CPU      0.52s WALL

 
   This run was terminated on:  14:59: 9  21Apr2023            

=------------------------------------------------------------------------------=
   JOB DONE.
=------------------------------------------------------------------------------=
