MPI startup(): Warning: I_MPI_PMI_LIBRARY will be ignored since the hydra process manager was found
MPI startup(): Warning: I_MPI_PMI_LIBRARY will be ignored since the hydra process manager was found
MPI startup(): Warning: I_MPI_PMI_LIBRARY will be ignored since the hydra process manager was found
MPI startup(): Warning: I_MPI_PMI_LIBRARY will be ignored since the hydra process manager was found
MPI startup(): Warning: I_MPI_PMI_LIBRARY will be ignored since the hydra process manager was found
MPI startup(): Warning: I_MPI_PMI_LIBRARY will be ignored since the hydra process manager was found
MPI startup(): Warning: I_MPI_PMI_LIBRARY will be ignored since the hydra process manager was found
MPI startup(): Warning: I_MPI_PMI_LIBRARY will be ignored since the hydra process manager was found
MPI startup(): Warning: I_MPI_PMI_LIBRARY will be ignored since the hydra process manager was found

     Program PWSCF v.7.1 starts on 21Apr2023 at 14:59: 4 

     This program is part of the open-source Quantum ESPRESSO suite
     for quantum simulation of materials; please cite
         "P. Giannozzi et al., J. Phys.:Condens. Matter 21 395502 (2009);
         "P. Giannozzi et al., J. Phys.:Condens. Matter 29 465901 (2017);
         "P. Giannozzi et al., J. Chem. Phys. 152 154105 (2020);
          URL http://www.quantum-espresso.org", 
     in publications or presentations arising from this work. More details at
     http://www.quantum-espresso.org/quote

     Parallel version (MPI), running on     9 processors

     MPI processes distributed on     1 nodes
     3558 MiB available memory on the printing compute node when the environment starts
 
     Waiting for input...
     Reading input from standard input

     Current dimensions of program PWSCF are:
     Max number of different atomic species (ntypx) = 10
     Max number of k-points (npk) =  40000
     Max angular momentum in pseudopotentials (lmaxx) =  4
     file O.pz-rrkjus.UPF: wavefunction(s)  2S renormalized

     gamma-point specific algorithms are used
 
     R & G space division:  proc/nbgrp/npool/nimage =       9
     Subspace diagonalization in iterative solution of the eigenvalue problem:
     a serial algorithm will be used

 
     Parallelization info
     --------------------
     sticks:   dense  smooth     PW     G-vecs:    dense   smooth      PW
     Min         188     188     45                 5875     5875     730
     Max         190     190     48                 5882     5882     740
     Sum        1701    1701    421                52923    52923    6619
 
     Using Slab Decomposition
 


     bravais-lattice index     =            1
     lattice parameter (alat)  =      18.8973  a.u.
     unit-cell volume          =    6748.3345 (a.u.)^3
     number of atoms/cell      =            3
     number of atomic types    =            2
     number of electrons       =        16.00
     number of Kohn-Sham states=            8
     kinetic-energy cutoff     =      15.0000  Ry
     charge density cutoff     =      60.0000  Ry
     scf convergence threshold =      1.0E-06
     mixing beta               =       0.7000
     number of iterations used =            8  plain     mixing
     Exchange-correlation=  SLA  PZ   NOGX NOGC
                           (   1   1   0   0   0   0   0)

     celldm(1)=  18.897261  celldm(2)=   0.000000  celldm(3)=   0.000000
     celldm(4)=   0.000000  celldm(5)=   0.000000  celldm(6)=   0.000000

     crystal axes: (cart. coord. in units of alat)
               a(1) = (   1.000000   0.000000   0.000000 )  
               a(2) = (   0.000000   1.000000   0.000000 )  
               a(3) = (   0.000000   0.000000   1.000000 )  

     reciprocal axes: (cart. coord. in units 2 pi/alat)
               b(1) = (  1.000000  0.000000  0.000000 )  
               b(2) = (  0.000000  1.000000  0.000000 )  
               b(3) = (  0.000000  0.000000  1.000000 )  


     PseudoPot. # 1 for C  read from file:
     ../../../pseudo/C.pz-vbc.UPF
     MD5 check sum: ab53dd623bfeb79c5a7b057bc96eae20
     Pseudo is Norm-conserving, Zval =  4.0
     Generated by new atomic code, or converted to UPF format
     Using radial grid of  269 points,  1 beta functions with: 
                l(1) =   0

     PseudoPot. # 2 for O  read from file:
     ../../../pseudo/O.pz-rrkjus.UPF
     MD5 check sum: 24fb942a68ef5d262e498166c462ef4a
     Pseudo is Ultrasoft, Zval =  6.0
     Generated by new atomic code, or converted to UPF format
     Using radial grid of 1269 points,  4 beta functions with: 
                l(1) =   0
                l(2) =   0
                l(3) =   1
                l(4) =   1
     Q(r) pseudized with 0 coefficients 


     atomic species   valence    mass     pseudopotential
        C              4.00    12.01100     C ( 1.00)
        O              6.00    15.99990     O ( 1.00)

     16 Sym. Ops., with inversion, found



   Cartesian axes

     site n.     atom                  positions (alat units)
         1           C   tau(   1) = (   0.0000000   0.0000000   0.0000000  )
         2           O   tau(   2) = (   0.0000000   0.0000000   0.1161500  )
         3           O   tau(   3) = (   0.0000000   0.0000000  -0.1161500  )

     number of k points=     1
                       cart. coord. in units 2pi/alat
        k(    1) = (   0.0000000   0.0000000   0.0000000), wk =   2.0000000

     Dense  grid:    26462 G-vectors     FFT dimensions: (  48,  48,  48)

     Estimated max dynamical RAM per process >       4.78 MB

     Estimated total dynamical RAM >      42.99 MB

     Initial potential from superposition of free atoms

     starting charge      16.0000, renormalised to      16.0000

     negative rho (up, down):  1.074E+00 0.000E+00
     Starting wfcs are   12 randomized atomic wfcs

     total cpu time spent up to now is        0.1 secs

     Self-consistent Calculation

     iteration #  1     ecut=    15.00 Ry     beta= 0.70
     Davidson diagonalization with overlap
     ethr =  1.00E-02,  avg # of iterations =  2.0

     negative rho (up, down):  9.710E-01 0.000E+00

     total cpu time spent up to now is        0.1 secs

     total energy              =     -73.64364574 Ry
     estimated scf accuracy    <       0.33620508 Ry

     iteration #  2     ecut=    15.00 Ry     beta= 0.70
     Davidson diagonalization with overlap
     ethr =  2.10E-03,  avg # of iterations =  3.0

     negative rho (up, down):  8.961E-01 0.000E+00

     total cpu time spent up to now is        0.2 secs

     total energy              =     -73.69707159 Ry
     estimated scf accuracy    <       0.16888626 Ry

     iteration #  3     ecut=    15.00 Ry     beta= 0.70
     Davidson diagonalization with overlap
     ethr =  1.06E-03,  avg # of iterations =  2.0

     negative rho (up, down):  8.627E-01 0.000E+00

     total cpu time spent up to now is        0.2 secs

     total energy              =     -73.73155576 Ry
     estimated scf accuracy    <       0.00434871 Ry

     iteration #  4     ecut=    15.00 Ry     beta= 0.70
     Davidson diagonalization with overlap
     ethr =  2.72E-05,  avg # of iterations =  2.0

     negative rho (up, down):  8.625E-01 0.000E+00

     total cpu time spent up to now is        0.2 secs

     total energy              =     -73.73174821 Ry
     estimated scf accuracy    <       0.00095370 Ry

     iteration #  5     ecut=    15.00 Ry     beta= 0.70
     Davidson diagonalization with overlap
     ethr =  5.96E-06,  avg # of iterations =  1.0

     negative rho (up, down):  8.630E-01 0.000E+00

     total cpu time spent up to now is        0.2 secs

     total energy              =     -73.73162843 Ry
     estimated scf accuracy    <       0.00028207 Ry

     iteration #  6     ecut=    15.00 Ry     beta= 0.70
     Davidson diagonalization with overlap
     ethr =  1.76E-06,  avg # of iterations =  3.0

     negative rho (up, down):  8.627E-01 0.000E+00

     total cpu time spent up to now is        0.2 secs

     total energy              =     -73.73173824 Ry
     estimated scf accuracy    <       0.00003620 Ry

     iteration #  7     ecut=    15.00 Ry     beta= 0.70
     Davidson diagonalization with overlap
     ethr =  2.26E-07,  avg # of iterations =  1.0

     negative rho (up, down):  8.626E-01 0.000E+00

     total cpu time spent up to now is        0.2 secs

     total energy              =     -73.73173702 Ry
     estimated scf accuracy    <       0.00000893 Ry

     iteration #  8     ecut=    15.00 Ry     beta= 0.70
     Davidson diagonalization with overlap
     ethr =  5.58E-08,  avg # of iterations =  3.0

     negative rho (up, down):  8.625E-01 0.000E+00

     total cpu time spent up to now is        0.2 secs

     End of self-consistent calculation

          k = 0.0000 0.0000 0.0000 (  3310 PWs)   bands (ev):

   -30.4712 -29.3293 -14.1737 -12.7029 -12.7029 -12.6596  -9.1621  -9.1621

     highest occupied level (ev):    -9.1621

!    total energy              =     -73.73173857 Ry
     estimated scf accuracy    <       0.00000028 Ry

     The total energy is the sum of the following terms:
     one-electron contribution =    -161.45157459 Ry
     hartree contribution      =      82.04041690 Ry
     xc contribution           =     -16.63481653 Ry
     ewald contribution        =      22.31423565 Ry

     convergence has been achieved in   8 iterations
 
     init_run     :      0.04s CPU      0.05s WALL (       1 calls)
     electrons    :      0.10s CPU      0.11s WALL (       1 calls)

     Called by init_run:
     wfcinit      :      0.00s CPU      0.00s WALL (       1 calls)
     potinit      :      0.01s CPU      0.01s WALL (       1 calls)
     hinit0       :      0.03s CPU      0.03s WALL (       1 calls)

     Called by electrons:
     c_bands      :      0.04s CPU      0.04s WALL (       8 calls)
     sum_band     :      0.03s CPU      0.04s WALL (       8 calls)
     v_of_rho     :      0.01s CPU      0.01s WALL (       9 calls)
     newd         :      0.02s CPU      0.02s WALL (       9 calls)
     mix_rho      :      0.01s CPU      0.01s WALL (       8 calls)

     Called by c_bands:
     init_us_2    :      0.00s CPU      0.00s WALL (      17 calls)
     init_us_2:cp :      0.00s CPU      0.00s WALL (      17 calls)
     regterg      :      0.03s CPU      0.03s WALL (       8 calls)

     Called by *egterg:
     rdiaghg      :      0.00s CPU      0.00s WALL (      25 calls)
     h_psi        :      0.03s CPU      0.03s WALL (      26 calls)
     s_psi        :      0.00s CPU      0.00s WALL (      26 calls)
     g_psi        :      0.00s CPU      0.00s WALL (      17 calls)

     Called by h_psi:
     h_psi:calbec :      0.00s CPU      0.00s WALL (      26 calls)
     vloc_psi     :      0.02s CPU      0.03s WALL (      26 calls)
     add_vuspsi   :      0.00s CPU      0.00s WALL (      26 calls)

     General routines
     calbec       :      0.00s CPU      0.00s WALL (      34 calls)
     fft          :      0.01s CPU      0.01s WALL (      35 calls)
     ffts         :      0.00s CPU      0.00s WALL (       8 calls)
     fftw         :      0.02s CPU      0.03s WALL (     216 calls)
 
     Parallel routines
 
     PWSCF        :      0.21s CPU      0.25s WALL

 
   This run was terminated on:  14:59: 4  21Apr2023            

=------------------------------------------------------------------------------=
   JOB DONE.
=------------------------------------------------------------------------------=
