
     Program PWSCF v.7.1 starts on 21Apr2023 at 16:42:18 

     This program is part of the open-source Quantum ESPRESSO suite
     for quantum simulation of materials; please cite
         "P. Giannozzi et al., J. Phys.:Condens. Matter 21 395502 (2009);
         "P. Giannozzi et al., J. Phys.:Condens. Matter 29 465901 (2017);
         "P. Giannozzi et al., J. Chem. Phys. 152 154105 (2020);
          URL http://www.quantum-espresso.org", 
     in publications or presentations arising from this work. More details at
     http://www.quantum-espresso.org/quote

     Parallel version (MPI), running on     1 processors

     MPI processes distributed on     1 nodes
     3782 MiB available memory on the printing compute node when the environment starts
 
     Waiting for input...
     Reading input from standard input

     Current dimensions of program PWSCF are:
     Max number of different atomic species (ntypx) = 10
     Max number of k-points (npk) =  40000
     Max angular momentum in pseudopotentials (lmaxx) =  4
     file H.pz-vbc.UPF: wavefunction(s)  1S renormalized

     gamma-point specific algorithms are used
 
     Subspace diagonalization in iterative solution of the eigenvalue problem:
     a serial algorithm will be used

 
     G-vector sticks info
     --------------------
     sticks:   dense  smooth     PW     G-vecs:    dense   smooth      PW
     Sum       11513   11513   2877               929121   929121  116129
 
     Using Slab Decomposition
 


     bravais-lattice index     =            1
     lattice parameter (alat)  =      28.3459  a.u.
     unit-cell volume          =   22775.6289 (a.u.)^3
     number of atoms/cell      =            5
     number of atomic types    =            2
     number of electrons       =         8.00
     number of Kohn-Sham states=            4
     kinetic-energy cutoff     =      45.0000  Ry
     charge density cutoff     =     180.0000  Ry
     scf convergence threshold =      1.0E-06
     mixing beta               =       0.7000
     number of iterations used =            8  plain     mixing
     Exchange-correlation=  SLA  PZ   NOGX NOGC
                           (   1   1   0   0   0   0   0)

     celldm(1)=  28.345892  celldm(2)=   0.000000  celldm(3)=   0.000000
     celldm(4)=   0.000000  celldm(5)=   0.000000  celldm(6)=   0.000000

     crystal axes: (cart. coord. in units of alat)
               a(1) = (   1.000000   0.000000   0.000000 )  
               a(2) = (   0.000000   1.000000   0.000000 )  
               a(3) = (   0.000000   0.000000   1.000000 )  

     reciprocal axes: (cart. coord. in units 2 pi/alat)
               b(1) = (  1.000000  0.000000  0.000000 )  
               b(2) = (  0.000000  1.000000  0.000000 )  
               b(3) = (  0.000000  0.000000  1.000000 )  


     PseudoPot. # 1 for C  read from file:
     ./C.pz-vbc.UPF
     MD5 check sum: ab53dd623bfeb79c5a7b057bc96eae20
     Pseudo is Norm-conserving, Zval =  4.0
     Generated by new atomic code, or converted to UPF format
     Using radial grid of  269 points,  1 beta functions with: 
                l(1) =   0

     PseudoPot. # 2 for H  read from file:
     ./H.pz-vbc.UPF
     MD5 check sum: 90becb985b714f09656c73597998d266
     Pseudo is Norm-conserving, Zval =  1.0
     Generated by new atomic code, or converted to UPF format
     Using radial grid of  131 points,  0 beta functions with: 

     atomic species   valence    mass     pseudopotential
        C              4.00    12.01100     C ( 1.00)
        H              1.00     1.00800     H ( 1.00)

      2 Sym. Ops. (no inversion) found



   Cartesian axes

     site n.     atom                  positions (alat units)
         1           C   tau(   1) = (   0.0000000   0.0000000   0.0000000  )
         2           H   tau(   2) = (   0.0000000   0.0000000   0.0726000  )
         3           H   tau(   3) = (   0.0684479   0.0000000  -0.0242000  )
         4           H   tau(   4) = (  -0.0342240  -0.0592777  -0.0242000  )
         5           H   tau(   5) = (  -0.0342240   0.0592777  -0.0242000  )

     number of k points=     1
                       cart. coord. in units 2pi/alat
        k(    1) = (   0.0000000   0.0000000   0.0000000), wk =   2.0000000

     Dense  grid:   464561 G-vectors     FFT dimensions: ( 125, 125, 125)

     Estimated max dynamical RAM per process >     360.08 MB

     Initial potential from superposition of free atoms

     starting charge       7.9999, renormalised to       8.0000

     negative rho (up, down):  2.508E-02 0.000E+00
     Starting wfcs are    8 randomized atomic wfcs

     total cpu time spent up to now is        0.9 secs

     Self-consistent Calculation

     iteration #  1     ecut=    45.00 Ry     beta= 0.70
     Davidson diagonalization with overlap
     ethr =  1.00E-02,  avg # of iterations =  2.0

     negative rho (up, down):  7.415E-03 0.000E+00

     total cpu time spent up to now is        1.8 secs

     total energy              =     -15.75978187 Ry
     estimated scf accuracy    <       0.74457215 Ry

     iteration #  2     ecut=    45.00 Ry     beta= 0.70
     Davidson diagonalization with overlap
     ethr =  9.31E-03,  avg # of iterations =  2.0

     negative rho (up, down):  3.828E-03 0.000E+00

     total cpu time spent up to now is        2.6 secs

     total energy              =     -15.96097854 Ry
     estimated scf accuracy    <       0.21568747 Ry

     iteration #  3     ecut=    45.00 Ry     beta= 0.70
     Davidson diagonalization with overlap
     ethr =  2.70E-03,  avg # of iterations =  2.0

     negative rho (up, down):  5.936E-04 0.000E+00

     total cpu time spent up to now is        3.4 secs

     total energy              =     -15.98899388 Ry
     estimated scf accuracy    <       0.00643241 Ry

     iteration #  4     ecut=    45.00 Ry     beta= 0.70
     Davidson diagonalization with overlap
     ethr =  8.04E-05,  avg # of iterations =  3.0

     negative rho (up, down):  4.747E-04 0.000E+00

     total cpu time spent up to now is        4.4 secs

     total energy              =     -15.99040239 Ry
     estimated scf accuracy    <       0.00644121 Ry

     iteration #  5     ecut=    45.00 Ry     beta= 0.70
     Davidson diagonalization with overlap
     ethr =  8.04E-05,  avg # of iterations =  2.0

     negative rho (up, down):  2.339E-05 0.000E+00

     total cpu time spent up to now is        5.2 secs

     total energy              =     -15.99161963 Ry
     estimated scf accuracy    <       0.00005664 Ry

     iteration #  6     ecut=    45.00 Ry     beta= 0.70
     Davidson diagonalization with overlap
     ethr =  7.08E-07,  avg # of iterations =  3.0

     negative rho (up, down):  1.525E-06 0.000E+00

     total cpu time spent up to now is        6.2 secs

     total energy              =     -15.99152656 Ry
     estimated scf accuracy    <       0.00029959 Ry

     iteration #  7     ecut=    45.00 Ry     beta= 0.70
     Davidson diagonalization with overlap
     ethr =  7.08E-07,  avg # of iterations =  2.0

     negative rho (up, down):  1.500E-06 0.000E+00

     total cpu time spent up to now is        7.1 secs

     total energy              =     -15.99156713 Ry
     estimated scf accuracy    <       0.00000379 Ry

     iteration #  8     ecut=    45.00 Ry     beta= 0.70
     Davidson diagonalization with overlap
     ethr =  4.73E-08,  avg # of iterations =  2.0

     total cpu time spent up to now is        7.8 secs

     End of self-consistent calculation

          k = 0.0000 0.0000 0.0000 ( 58065 PWs)   bands (ev):

   -16.9415  -9.4375  -9.4375  -9.4374

     highest occupied level (ev):    -9.4374

!    total energy              =     -15.99156833 Ry
     estimated scf accuracy    <       0.00000020 Ry

     The total energy is the sum of the following terms:
     one-electron contribution =     -46.53041945 Ry
     hartree contribution      =      23.96874869 Ry
     xc contribution           =      -6.16933536 Ry
     ewald contribution        =      12.73943779 Ry

     convergence has been achieved in   8 iterations
 
     init_run     :      0.69s CPU      0.90s WALL (       1 calls)
     electrons    :      6.77s CPU      6.93s WALL (       1 calls)

     Called by init_run:
     wfcinit      :      0.29s CPU      0.31s WALL (       1 calls)
     potinit      :      0.19s CPU      0.27s WALL (       1 calls)
     hinit0       :      0.09s CPU      0.17s WALL (       1 calls)

     Called by electrons:
     c_bands      :      3.46s CPU      3.47s WALL (       8 calls)
     sum_band     :      1.29s CPU      1.29s WALL (       8 calls)
     v_of_rho     :      1.00s CPU      1.05s WALL (       9 calls)
     mix_rho      :      0.94s CPU      1.05s WALL (       8 calls)

     Called by c_bands:
     init_us_2    :      0.03s CPU      0.03s WALL (      17 calls)
     init_us_2:cp :      0.03s CPU      0.03s WALL (      17 calls)
     regterg      :      3.44s CPU      3.45s WALL (       8 calls)

     Called by *egterg:
     rdiaghg      :      0.00s CPU      0.00s WALL (      26 calls)
     h_psi        :      3.56s CPU      3.58s WALL (      27 calls)
     g_psi        :      0.01s CPU      0.01s WALL (      18 calls)

     Called by h_psi:
     h_psi:calbec :      0.01s CPU      0.01s WALL (      27 calls)
     vloc_psi     :      3.51s CPU      3.53s WALL (      27 calls)
     add_vuspsi   :      0.02s CPU      0.02s WALL (      27 calls)

     General routines
     calbec       :      0.01s CPU      0.01s WALL (      27 calls)
     fft          :      0.66s CPU      0.67s WALL (      26 calls)
     ffts         :      0.21s CPU      0.21s WALL (       8 calls)
     fftw         :      3.32s CPU      3.32s WALL (     128 calls)
 
     Parallel routines
 
     PWSCF        :      7.48s CPU      7.87s WALL

 
   This run was terminated on:  16:42:26  21Apr2023            

=------------------------------------------------------------------------------=
   JOB DONE.
=------------------------------------------------------------------------------=
