
     Program PWSCF v.7.1 starts on 21Apr2023 at 16:42:27 

     This program is part of the open-source Quantum ESPRESSO suite
     for quantum simulation of materials; please cite
         "P. Giannozzi et al., J. Phys.:Condens. Matter 21 395502 (2009);
         "P. Giannozzi et al., J. Phys.:Condens. Matter 29 465901 (2017);
         "P. Giannozzi et al., J. Chem. Phys. 152 154105 (2020);
          URL http://www.quantum-espresso.org", 
     in publications or presentations arising from this work. More details at
     http://www.quantum-espresso.org/quote

     Parallel version (MPI), running on     1 processors

     MPI processes distributed on     1 nodes
     3781 MiB available memory on the printing compute node when the environment starts
 
     Waiting for input...
     Reading input from standard input

     Current dimensions of program PWSCF are:
     Max number of different atomic species (ntypx) = 10
     Max number of k-points (npk) =  40000
     Max angular momentum in pseudopotentials (lmaxx) =  4
     file H.pz-vbc.UPF: wavefunction(s)  1S renormalized

     gamma-point specific algorithms are used
 
     Subspace diagonalization in iterative solution of the eigenvalue problem:
     a serial algorithm will be used

 
     G-vector sticks info
     --------------------
     sticks:   dense  smooth     PW     G-vecs:    dense   smooth      PW
     Sum       12785   12785   3189              1088527  1088527  135883
 
     Using Slab Decomposition
 


     bravais-lattice index     =            1
     lattice parameter (alat)  =      28.3459  a.u.
     unit-cell volume          =   22775.6289 (a.u.)^3
     number of atoms/cell      =            5
     number of atomic types    =            2
     number of electrons       =         8.00
     number of Kohn-Sham states=            4
     kinetic-energy cutoff     =      50.0000  Ry
     charge density cutoff     =     200.0000  Ry
     scf convergence threshold =      1.0E-06
     mixing beta               =       0.7000
     number of iterations used =            8  plain     mixing
     Exchange-correlation=  SLA  PZ   NOGX NOGC
                           (   1   1   0   0   0   0   0)

     celldm(1)=  28.345892  celldm(2)=   0.000000  celldm(3)=   0.000000
     celldm(4)=   0.000000  celldm(5)=   0.000000  celldm(6)=   0.000000

     crystal axes: (cart. coord. in units of alat)
               a(1) = (   1.000000   0.000000   0.000000 )  
               a(2) = (   0.000000   1.000000   0.000000 )  
               a(3) = (   0.000000   0.000000   1.000000 )  

     reciprocal axes: (cart. coord. in units 2 pi/alat)
               b(1) = (  1.000000  0.000000  0.000000 )  
               b(2) = (  0.000000  1.000000  0.000000 )  
               b(3) = (  0.000000  0.000000  1.000000 )  


     PseudoPot. # 1 for C  read from file:
     ./C.pz-vbc.UPF
     MD5 check sum: ab53dd623bfeb79c5a7b057bc96eae20
     Pseudo is Norm-conserving, Zval =  4.0
     Generated by new atomic code, or converted to UPF format
     Using radial grid of  269 points,  1 beta functions with: 
                l(1) =   0

     PseudoPot. # 2 for H  read from file:
     ./H.pz-vbc.UPF
     MD5 check sum: 90becb985b714f09656c73597998d266
     Pseudo is Norm-conserving, Zval =  1.0
     Generated by new atomic code, or converted to UPF format
     Using radial grid of  131 points,  0 beta functions with: 

     atomic species   valence    mass     pseudopotential
        C              4.00    12.01100     C ( 1.00)
        H              1.00     1.00800     H ( 1.00)

      2 Sym. Ops. (no inversion) found



   Cartesian axes

     site n.     atom                  positions (alat units)
         1           C   tau(   1) = (   0.0000000   0.0000000   0.0000000  )
         2           H   tau(   2) = (   0.0000000   0.0000000   0.0726000  )
         3           H   tau(   3) = (   0.0684479   0.0000000  -0.0242000  )
         4           H   tau(   4) = (  -0.0342240  -0.0592777  -0.0242000  )
         5           H   tau(   5) = (  -0.0342240   0.0592777  -0.0242000  )

     number of k points=     1
                       cart. coord. in units 2pi/alat
        k(    1) = (   0.0000000   0.0000000   0.0000000), wk =   2.0000000

     Dense  grid:   544264 G-vectors     FFT dimensions: ( 128, 128, 128)

     Estimated max dynamical RAM per process >     408.73 MB

     Initial potential from superposition of free atoms

     starting charge       7.9999, renormalised to       8.0000

     negative rho (up, down):  1.592E-02 0.000E+00
     Starting wfcs are    8 randomized atomic wfcs

     total cpu time spent up to now is        1.1 secs

     Self-consistent Calculation

     iteration #  1     ecut=    50.00 Ry     beta= 0.70
     Davidson diagonalization with overlap
     ethr =  1.00E-02,  avg # of iterations =  2.0

     negative rho (up, down):  4.686E-03 0.000E+00

     total cpu time spent up to now is        2.0 secs

     total energy              =     -15.77124286 Ry
     estimated scf accuracy    <       0.75578431 Ry

     iteration #  2     ecut=    50.00 Ry     beta= 0.70
     Davidson diagonalization with overlap
     ethr =  9.45E-03,  avg # of iterations =  2.0

     negative rho (up, down):  2.376E-03 0.000E+00

     total cpu time spent up to now is        2.9 secs

     total energy              =     -15.97681685 Ry
     estimated scf accuracy    <       0.22167402 Ry

     iteration #  3     ecut=    50.00 Ry     beta= 0.70
     Davidson diagonalization with overlap
     ethr =  2.77E-03,  avg # of iterations =  2.0

     negative rho (up, down):  4.003E-04 0.000E+00

     total cpu time spent up to now is        3.7 secs

     total energy              =     -16.00524204 Ry
     estimated scf accuracy    <       0.00684274 Ry

     iteration #  4     ecut=    50.00 Ry     beta= 0.70
     Davidson diagonalization with overlap
     ethr =  8.55E-05,  avg # of iterations =  3.0

     negative rho (up, down):  2.624E-04 0.000E+00

     total cpu time spent up to now is        4.8 secs

     total energy              =     -16.00679318 Ry
     estimated scf accuracy    <       0.00730020 Ry

     iteration #  5     ecut=    50.00 Ry     beta= 0.70
     Davidson diagonalization with overlap
     ethr =  8.55E-05,  avg # of iterations =  2.0

     negative rho (up, down):  2.623E-05 0.000E+00

     total cpu time spent up to now is        5.7 secs

     total energy              =     -16.00808694 Ry
     estimated scf accuracy    <       0.00002370 Ry

     iteration #  6     ecut=    50.00 Ry     beta= 0.70
     Davidson diagonalization with overlap
     ethr =  2.96E-07,  avg # of iterations =  4.0

     negative rho (up, down):  8.027E-07 0.000E+00

     total cpu time spent up to now is        6.9 secs

     total energy              =     -16.00798590 Ry
     estimated scf accuracy    <       0.00041401 Ry

     iteration #  7     ecut=    50.00 Ry     beta= 0.70
     Davidson diagonalization with overlap
     ethr =  2.96E-07,  avg # of iterations =  3.0

     negative rho (up, down):  2.457E-08 0.000E+00

     total cpu time spent up to now is        7.9 secs

     total energy              =     -16.00804241 Ry
     estimated scf accuracy    <       0.00000409 Ry

     iteration #  8     ecut=    50.00 Ry     beta= 0.70
     Davidson diagonalization with overlap
     ethr =  5.11E-08,  avg # of iterations =  1.0

     negative rho (up, down):  7.737E-08 0.000E+00

     total cpu time spent up to now is        8.8 secs

     total energy              =     -16.00804233 Ry
     estimated scf accuracy    <       0.00000157 Ry

     iteration #  9     ecut=    50.00 Ry     beta= 0.70
     Davidson diagonalization with overlap
     ethr =  1.96E-08,  avg # of iterations =  2.0

     total cpu time spent up to now is        9.5 secs

     End of self-consistent calculation

          k = 0.0000 0.0000 0.0000 ( 67942 PWs)   bands (ev):

   -16.9235  -9.4442  -9.4442  -9.4440

     highest occupied level (ev):    -9.4440

!    total energy              =     -16.00804219 Ry
     estimated scf accuracy    <       0.00000043 Ry

     The total energy is the sum of the following terms:
     one-electron contribution =     -46.56074185 Ry
     hartree contribution      =      23.98555221 Ry
     xc contribution           =      -6.17229033 Ry
     ewald contribution        =      12.73943778 Ry

     convergence has been achieved in   9 iterations
 
     init_run     :      0.79s CPU      1.04s WALL (       1 calls)
     electrons    :      8.29s CPU      8.50s WALL (       1 calls)

     Called by init_run:
     wfcinit      :      0.31s CPU      0.34s WALL (       1 calls)
     potinit      :      0.21s CPU      0.33s WALL (       1 calls)
     hinit0       :      0.10s CPU      0.18s WALL (       1 calls)

     Called by electrons:
     c_bands      :      4.13s CPU      4.15s WALL (       9 calls)
     sum_band     :      1.54s CPU      1.54s WALL (       9 calls)
     v_of_rho     :      1.19s CPU      1.27s WALL (      10 calls)
     mix_rho      :      1.31s CPU      1.46s WALL (       9 calls)

     Called by c_bands:
     init_us_2    :      0.04s CPU      0.04s WALL (      19 calls)
     init_us_2:cp :      0.04s CPU      0.04s WALL (      19 calls)
     regterg      :      4.10s CPU      4.12s WALL (       9 calls)

     Called by *egterg:
     rdiaghg      :      0.00s CPU      0.00s WALL (      30 calls)
     h_psi        :      4.15s CPU      4.18s WALL (      31 calls)
     g_psi        :      0.02s CPU      0.02s WALL (      21 calls)

     Called by h_psi:
     h_psi:calbec :      0.02s CPU      0.02s WALL (      31 calls)
     vloc_psi     :      4.09s CPU      4.11s WALL (      31 calls)
     add_vuspsi   :      0.02s CPU      0.02s WALL (      31 calls)

     General routines
     calbec       :      0.02s CPU      0.02s WALL (      31 calls)
     fft          :      0.71s CPU      0.71s WALL (      29 calls)
     ffts         :      0.23s CPU      0.23s WALL (       9 calls)
     fftw         :      3.80s CPU      3.80s WALL (     146 calls)
 
     Parallel routines
 
     PWSCF        :      9.09s CPU      9.58s WALL

 
   This run was terminated on:  16:42:36  21Apr2023            

=------------------------------------------------------------------------------=
   JOB DONE.
=------------------------------------------------------------------------------=
