
     Program PWSCF v.7.1 starts on 21Apr2023 at 16:41:58 

     This program is part of the open-source Quantum ESPRESSO suite
     for quantum simulation of materials; please cite
         "P. Giannozzi et al., J. Phys.:Condens. Matter 21 395502 (2009);
         "P. Giannozzi et al., J. Phys.:Condens. Matter 29 465901 (2017);
         "P. Giannozzi et al., J. Chem. Phys. 152 154105 (2020);
          URL http://www.quantum-espresso.org", 
     in publications or presentations arising from this work. More details at
     http://www.quantum-espresso.org/quote

     Parallel version (MPI), running on     1 processors

     MPI processes distributed on     1 nodes
     3779 MiB available memory on the printing compute node when the environment starts
 
     Waiting for input...
     Reading input from standard input

     Current dimensions of program PWSCF are:
     Max number of different atomic species (ntypx) = 10
     Max number of k-points (npk) =  40000
     Max angular momentum in pseudopotentials (lmaxx) =  4
     file H.pz-vbc.UPF: wavefunction(s)  1S renormalized

     gamma-point specific algorithms are used
 
     Subspace diagonalization in iterative solution of the eigenvalue problem:
     a serial algorithm will be used

 
     G-vector sticks info
     --------------------
     sticks:   dense  smooth     PW     G-vecs:    dense   smooth      PW
     Sum        6385    6385   1597               384587   384587   47937
 
     Using Slab Decomposition
 


     bravais-lattice index     =            1
     lattice parameter (alat)  =      28.3459  a.u.
     unit-cell volume          =   22775.6289 (a.u.)^3
     number of atoms/cell      =            5
     number of atomic types    =            2
     number of electrons       =         8.00
     number of Kohn-Sham states=            4
     kinetic-energy cutoff     =      25.0000  Ry
     charge density cutoff     =     100.0000  Ry
     scf convergence threshold =      1.0E-06
     mixing beta               =       0.7000
     number of iterations used =            8  plain     mixing
     Exchange-correlation=  SLA  PZ   NOGX NOGC
                           (   1   1   0   0   0   0   0)

     celldm(1)=  28.345892  celldm(2)=   0.000000  celldm(3)=   0.000000
     celldm(4)=   0.000000  celldm(5)=   0.000000  celldm(6)=   0.000000

     crystal axes: (cart. coord. in units of alat)
               a(1) = (   1.000000   0.000000   0.000000 )  
               a(2) = (   0.000000   1.000000   0.000000 )  
               a(3) = (   0.000000   0.000000   1.000000 )  

     reciprocal axes: (cart. coord. in units 2 pi/alat)
               b(1) = (  1.000000  0.000000  0.000000 )  
               b(2) = (  0.000000  1.000000  0.000000 )  
               b(3) = (  0.000000  0.000000  1.000000 )  


     PseudoPot. # 1 for C  read from file:
     ./C.pz-vbc.UPF
     MD5 check sum: ab53dd623bfeb79c5a7b057bc96eae20
     Pseudo is Norm-conserving, Zval =  4.0
     Generated by new atomic code, or converted to UPF format
     Using radial grid of  269 points,  1 beta functions with: 
                l(1) =   0

     PseudoPot. # 2 for H  read from file:
     ./H.pz-vbc.UPF
     MD5 check sum: 90becb985b714f09656c73597998d266
     Pseudo is Norm-conserving, Zval =  1.0
     Generated by new atomic code, or converted to UPF format
     Using radial grid of  131 points,  0 beta functions with: 

     atomic species   valence    mass     pseudopotential
        C              4.00    12.01100     C ( 1.00)
        H              1.00     1.00800     H ( 1.00)

      2 Sym. Ops. (no inversion) found



   Cartesian axes

     site n.     atom                  positions (alat units)
         1           C   tau(   1) = (   0.0000000   0.0000000   0.0000000  )
         2           H   tau(   2) = (   0.0000000   0.0000000   0.0726000  )
         3           H   tau(   3) = (   0.0684479   0.0000000  -0.0242000  )
         4           H   tau(   4) = (  -0.0342240  -0.0592777  -0.0242000  )
         5           H   tau(   5) = (  -0.0342240   0.0592777  -0.0242000  )

     number of k points=     1
                       cart. coord. in units 2pi/alat
        k(    1) = (   0.0000000   0.0000000   0.0000000), wk =   2.0000000

     Dense  grid:   192294 G-vectors     FFT dimensions: (  96,  96,  96)

     Estimated max dynamical RAM per process >     154.29 MB

     Initial potential from superposition of free atoms

     starting charge       7.9999, renormalised to       8.0000

     negative rho (up, down):  3.615E-02 0.000E+00
     Starting wfcs are    8 randomized atomic wfcs

     total cpu time spent up to now is        0.4 secs

     Self-consistent Calculation

     iteration #  1     ecut=    25.00 Ry     beta= 0.70
     Davidson diagonalization with overlap
     ethr =  1.00E-02,  avg # of iterations =  2.0

     negative rho (up, down):  1.056E-02 0.000E+00

     total cpu time spent up to now is        0.7 secs

     total energy              =     -15.60249333 Ry
     estimated scf accuracy    <       0.58571859 Ry

     iteration #  2     ecut=    25.00 Ry     beta= 0.70
     Davidson diagonalization with overlap
     ethr =  7.32E-03,  avg # of iterations =  2.0

     negative rho (up, down):  5.254E-03 0.000E+00

     total cpu time spent up to now is        1.0 secs

     total energy              =     -15.74587430 Ry
     estimated scf accuracy    <       0.14161575 Ry

     iteration #  3     ecut=    25.00 Ry     beta= 0.70
     Davidson diagonalization with overlap
     ethr =  1.77E-03,  avg # of iterations =  2.0

     negative rho (up, down):  2.196E-04 0.000E+00

     total cpu time spent up to now is        1.3 secs

     total energy              =     -15.76619614 Ry
     estimated scf accuracy    <       0.00374210 Ry

     iteration #  4     ecut=    25.00 Ry     beta= 0.70
     Davidson diagonalization with overlap
     ethr =  4.68E-05,  avg # of iterations =  2.0

     negative rho (up, down):  1.546E-04 0.000E+00

     total cpu time spent up to now is        1.6 secs

     total energy              =     -15.76723321 Ry
     estimated scf accuracy    <       0.00142379 Ry

     iteration #  5     ecut=    25.00 Ry     beta= 0.70
     Davidson diagonalization with overlap
     ethr =  1.78E-05,  avg # of iterations =  1.0

     negative rho (up, down):  9.994E-08 0.000E+00

     total cpu time spent up to now is        1.8 secs

     total energy              =     -15.76716808 Ry
     estimated scf accuracy    <       0.00019492 Ry

     iteration #  6     ecut=    25.00 Ry     beta= 0.70
     Davidson diagonalization with overlap
     ethr =  2.44E-06,  avg # of iterations =  3.0

     negative rho (up, down):  2.997E-07 0.000E+00

     total cpu time spent up to now is        2.1 secs

     total energy              =     -15.76713103 Ry
     estimated scf accuracy    <       0.00092429 Ry

     iteration #  7     ecut=    25.00 Ry     beta= 0.70
     Davidson diagonalization with overlap
     ethr =  2.44E-06,  avg # of iterations =  2.0

     total cpu time spent up to now is        2.4 secs

     total energy              =     -15.76723739 Ry
     estimated scf accuracy    <       0.00002124 Ry

     iteration #  8     ecut=    25.00 Ry     beta= 0.70
     Davidson diagonalization with overlap
     ethr =  2.65E-07,  avg # of iterations =  2.0

     total cpu time spent up to now is        2.8 secs

     total energy              =     -15.76724709 Ry
     estimated scf accuracy    <       0.00002282 Ry

     iteration #  9     ecut=    25.00 Ry     beta= 0.70
     Davidson diagonalization with overlap
     ethr =  2.65E-07,  avg # of iterations =  1.0

     total cpu time spent up to now is        3.0 secs

     total energy              =     -15.76724859 Ry
     estimated scf accuracy    <       0.00000230 Ry

     iteration # 10     ecut=    25.00 Ry     beta= 0.70
     Davidson diagonalization with overlap
     ethr =  2.87E-08,  avg # of iterations =  1.0

     total cpu time spent up to now is        3.3 secs

     total energy              =     -15.76725007 Ry
     estimated scf accuracy    <       0.00000210 Ry

     iteration # 11     ecut=    25.00 Ry     beta= 0.70
     Davidson diagonalization with overlap
     ethr =  2.62E-08,  avg # of iterations =  1.0

     total cpu time spent up to now is        3.6 secs

     total energy              =     -15.76724856 Ry
     estimated scf accuracy    <       0.00000550 Ry

     iteration # 12     ecut=    25.00 Ry     beta= 0.70
     Davidson diagonalization with overlap
     ethr =  2.62E-08,  avg # of iterations =  1.0

     total cpu time spent up to now is        3.9 secs

     total energy              =     -15.76724787 Ry
     estimated scf accuracy    <       0.00000183 Ry

     iteration # 13     ecut=    25.00 Ry     beta= 0.70
     Davidson diagonalization with overlap
     ethr =  2.29E-08,  avg # of iterations =  2.0

     total cpu time spent up to now is        4.1 secs

     End of self-consistent calculation

          k = 0.0000 0.0000 0.0000 ( 23969 PWs)   bands (ev):

   -17.0878  -9.3948  -9.3947  -9.3943

     highest occupied level (ev):    -9.3943

!    total energy              =     -15.76724824 Ry
     estimated scf accuracy    <          6.9E-09 Ry

     The total energy is the sum of the following terms:
     one-electron contribution =     -46.11095564 Ry
     hartree contribution      =      23.73038771 Ry
     xc contribution           =      -6.12611810 Ry
     ewald contribution        =      12.73943779 Ry

     convergence has been achieved in  13 iterations
 
     init_run     :      0.24s CPU      0.34s WALL (       1 calls)
     electrons    :      3.66s CPU      3.74s WALL (       1 calls)

     Called by init_run:
     wfcinit      :      0.09s CPU      0.10s WALL (       1 calls)
     potinit      :      0.06s CPU      0.10s WALL (       1 calls)
     hinit0       :      0.04s CPU      0.07s WALL (       1 calls)

     Called by electrons:
     c_bands      :      1.50s CPU      1.51s WALL (      13 calls)
     sum_band     :      0.67s CPU      0.67s WALL (      13 calls)
     v_of_rho     :      0.64s CPU      0.66s WALL (      14 calls)
     mix_rho      :      0.75s CPU      0.80s WALL (      13 calls)

     Called by c_bands:
     init_us_2    :      0.02s CPU      0.02s WALL (      27 calls)
     init_us_2:cp :      0.02s CPU      0.02s WALL (      27 calls)
     regterg      :      1.48s CPU      1.49s WALL (      13 calls)

     Called by *egterg:
     rdiaghg      :      0.00s CPU      0.00s WALL (      35 calls)
     h_psi        :      1.48s CPU      1.49s WALL (      36 calls)
     g_psi        :      0.01s CPU      0.01s WALL (      22 calls)

     Called by h_psi:
     h_psi:calbec :      0.01s CPU      0.01s WALL (      36 calls)
     vloc_psi     :      1.46s CPU      1.47s WALL (      36 calls)
     add_vuspsi   :      0.01s CPU      0.01s WALL (      36 calls)

     General routines
     calbec       :      0.01s CPU      0.01s WALL (      36 calls)
     fft          :      0.34s CPU      0.34s WALL (      41 calls)
     ffts         :      0.11s CPU      0.11s WALL (      13 calls)
     fftw         :      1.39s CPU      1.39s WALL (     174 calls)
 
     Parallel routines
 
     PWSCF        :      3.92s CPU      4.10s WALL

 
   This run was terminated on:  16:42: 2  21Apr2023            

=------------------------------------------------------------------------------=
   JOB DONE.
=------------------------------------------------------------------------------=
