
     Program PWSCF v.7.1 starts on 21Apr2023 at 16:42: 7 

     This program is part of the open-source Quantum ESPRESSO suite
     for quantum simulation of materials; please cite
         "P. Giannozzi et al., J. Phys.:Condens. Matter 21 395502 (2009);
         "P. Giannozzi et al., J. Phys.:Condens. Matter 29 465901 (2017);
         "P. Giannozzi et al., J. Chem. Phys. 152 154105 (2020);
          URL http://www.quantum-espresso.org", 
     in publications or presentations arising from this work. More details at
     http://www.quantum-espresso.org/quote

     Parallel version (MPI), running on     1 processors

     MPI processes distributed on     1 nodes
     3780 MiB available memory on the printing compute node when the environment starts
 
     Waiting for input...
     Reading input from standard input

     Current dimensions of program PWSCF are:
     Max number of different atomic species (ntypx) = 10
     Max number of k-points (npk) =  40000
     Max angular momentum in pseudopotentials (lmaxx) =  4
     file H.pz-vbc.UPF: wavefunction(s)  1S renormalized

     gamma-point specific algorithms are used
 
     Subspace diagonalization in iterative solution of the eigenvalue problem:
     a serial algorithm will be used

 
     G-vector sticks info
     --------------------
     sticks:   dense  smooth     PW     G-vecs:    dense   smooth      PW
     Sum        8969    8969   2241               637483   637483   79597
 
     Using Slab Decomposition
 


     bravais-lattice index     =            1
     lattice parameter (alat)  =      28.3459  a.u.
     unit-cell volume          =   22775.6289 (a.u.)^3
     number of atoms/cell      =            5
     number of atomic types    =            2
     number of electrons       =         8.00
     number of Kohn-Sham states=            4
     kinetic-energy cutoff     =      35.0000  Ry
     charge density cutoff     =     140.0000  Ry
     scf convergence threshold =      1.0E-06
     mixing beta               =       0.7000
     number of iterations used =            8  plain     mixing
     Exchange-correlation=  SLA  PZ   NOGX NOGC
                           (   1   1   0   0   0   0   0)

     celldm(1)=  28.345892  celldm(2)=   0.000000  celldm(3)=   0.000000
     celldm(4)=   0.000000  celldm(5)=   0.000000  celldm(6)=   0.000000

     crystal axes: (cart. coord. in units of alat)
               a(1) = (   1.000000   0.000000   0.000000 )  
               a(2) = (   0.000000   1.000000   0.000000 )  
               a(3) = (   0.000000   0.000000   1.000000 )  

     reciprocal axes: (cart. coord. in units 2 pi/alat)
               b(1) = (  1.000000  0.000000  0.000000 )  
               b(2) = (  0.000000  1.000000  0.000000 )  
               b(3) = (  0.000000  0.000000  1.000000 )  


     PseudoPot. # 1 for C  read from file:
     ./C.pz-vbc.UPF
     MD5 check sum: ab53dd623bfeb79c5a7b057bc96eae20
     Pseudo is Norm-conserving, Zval =  4.0
     Generated by new atomic code, or converted to UPF format
     Using radial grid of  269 points,  1 beta functions with: 
                l(1) =   0

     PseudoPot. # 2 for H  read from file:
     ./H.pz-vbc.UPF
     MD5 check sum: 90becb985b714f09656c73597998d266
     Pseudo is Norm-conserving, Zval =  1.0
     Generated by new atomic code, or converted to UPF format
     Using radial grid of  131 points,  0 beta functions with: 

     atomic species   valence    mass     pseudopotential
        C              4.00    12.01100     C ( 1.00)
        H              1.00     1.00800     H ( 1.00)

      2 Sym. Ops. (no inversion) found



   Cartesian axes

     site n.     atom                  positions (alat units)
         1           C   tau(   1) = (   0.0000000   0.0000000   0.0000000  )
         2           H   tau(   2) = (   0.0000000   0.0000000   0.0726000  )
         3           H   tau(   3) = (   0.0684479   0.0000000  -0.0242000  )
         4           H   tau(   4) = (  -0.0342240  -0.0592777  -0.0242000  )
         5           H   tau(   5) = (  -0.0342240   0.0592777  -0.0242000  )

     number of k points=     1
                       cart. coord. in units 2pi/alat
        k(    1) = (   0.0000000   0.0000000   0.0000000), wk =   2.0000000

     Dense  grid:   318742 G-vectors     FFT dimensions: ( 108, 108, 108)

     Estimated max dynamical RAM per process >     241.54 MB

     Initial potential from superposition of free atoms

     starting charge       7.9999, renormalised to       8.0000

     negative rho (up, down):  2.924E-02 0.000E+00
     Starting wfcs are    8 randomized atomic wfcs

     total cpu time spent up to now is        0.5 secs

     Self-consistent Calculation

     iteration #  1     ecut=    35.00 Ry     beta= 0.70
     Davidson diagonalization with overlap
     ethr =  1.00E-02,  avg # of iterations =  2.0

     negative rho (up, down):  8.623E-03 0.000E+00

     total cpu time spent up to now is        1.0 secs

     total energy              =     -15.72030552 Ry
     estimated scf accuracy    <       0.69895133 Ry

     iteration #  2     ecut=    35.00 Ry     beta= 0.70
     Davidson diagonalization with overlap
     ethr =  8.74E-03,  avg # of iterations =  2.0

     negative rho (up, down):  4.387E-03 0.000E+00

     total cpu time spent up to now is        1.4 secs

     total energy              =     -15.90445833 Ry
     estimated scf accuracy    <       0.19306054 Ry

     iteration #  3     ecut=    35.00 Ry     beta= 0.70
     Davidson diagonalization with overlap
     ethr =  2.41E-03,  avg # of iterations =  2.0

     negative rho (up, down):  5.065E-04 0.000E+00

     total cpu time spent up to now is        1.9 secs

     total energy              =     -15.93045916 Ry
     estimated scf accuracy    <       0.00538189 Ry

     iteration #  4     ecut=    35.00 Ry     beta= 0.70
     Davidson diagonalization with overlap
     ethr =  6.73E-05,  avg # of iterations =  3.0

     negative rho (up, down):  5.566E-04 0.000E+00

     total cpu time spent up to now is        2.4 secs

     total energy              =     -15.93156085 Ry
     estimated scf accuracy    <       0.00435572 Ry

     iteration #  5     ecut=    35.00 Ry     beta= 0.70
     Davidson diagonalization with overlap
     ethr =  5.44E-05,  avg # of iterations =  2.0

     negative rho (up, down):  7.752E-06 0.000E+00

     total cpu time spent up to now is        2.9 secs

     total energy              =     -15.93246665 Ry
     estimated scf accuracy    <       0.00013789 Ry

     iteration #  6     ecut=    35.00 Ry     beta= 0.70
     Davidson diagonalization with overlap
     ethr =  1.72E-06,  avg # of iterations =  1.0

     negative rho (up, down):  1.104E-06 0.000E+00

     total cpu time spent up to now is        3.3 secs

     total energy              =     -15.93240004 Ry
     estimated scf accuracy    <       0.00014569 Ry

     iteration #  7     ecut=    35.00 Ry     beta= 0.70
     Davidson diagonalization with overlap
     ethr =  1.72E-06,  avg # of iterations =  2.0

     total cpu time spent up to now is        3.7 secs

     total energy              =     -15.93241394 Ry
     estimated scf accuracy    <       0.00000489 Ry

     iteration #  8     ecut=    35.00 Ry     beta= 0.70
     Davidson diagonalization with overlap
     ethr =  6.11E-08,  avg # of iterations =  3.0

     total cpu time spent up to now is        4.1 secs

     End of self-consistent calculation

          k = 0.0000 0.0000 0.0000 ( 39799 PWs)   bands (ev):

   -16.9834  -9.4261  -9.4260  -9.4258

     highest occupied level (ev):    -9.4258

!    total energy              =     -15.93241618 Ry
     estimated scf accuracy    <       0.00000041 Ry

     The total energy is the sum of the following terms:
     one-electron contribution =     -46.41918972 Ry
     hartree contribution      =      23.90587107 Ry
     xc contribution           =      -6.15853532 Ry
     ewald contribution        =      12.73943779 Ry

     convergence has been achieved in   8 iterations
 
     init_run     :      0.39s CPU      0.52s WALL (       1 calls)
     electrons    :      3.48s CPU      3.59s WALL (       1 calls)

     Called by init_run:
     wfcinit      :      0.14s CPU      0.15s WALL (       1 calls)
     potinit      :      0.10s CPU      0.16s WALL (       1 calls)
     hinit0       :      0.06s CPU      0.10s WALL (       1 calls)

     Called by electrons:
     c_bands      :      1.62s CPU      1.63s WALL (       8 calls)
     sum_band     :      0.63s CPU      0.63s WALL (       8 calls)
     v_of_rho     :      0.60s CPU      0.64s WALL (       9 calls)
     mix_rho      :      0.56s CPU      0.64s WALL (       8 calls)

     Called by c_bands:
     init_us_2    :      0.02s CPU      0.02s WALL (      17 calls)
     init_us_2:cp :      0.02s CPU      0.02s WALL (      17 calls)
     regterg      :      1.61s CPU      1.62s WALL (       8 calls)

     Called by *egterg:
     rdiaghg      :      0.00s CPU      0.00s WALL (      25 calls)
     h_psi        :      1.64s CPU      1.65s WALL (      26 calls)
     g_psi        :      0.01s CPU      0.01s WALL (      17 calls)

     Called by h_psi:
     h_psi:calbec :      0.01s CPU      0.01s WALL (      26 calls)
     vloc_psi     :      1.61s CPU      1.62s WALL (      26 calls)
     add_vuspsi   :      0.01s CPU      0.01s WALL (      26 calls)

     General routines
     calbec       :      0.01s CPU      0.01s WALL (      26 calls)
     fft          :      0.31s CPU      0.32s WALL (      26 calls)
     ffts         :      0.10s CPU      0.10s WALL (       8 calls)
     fftw         :      1.47s CPU      1.47s WALL (     122 calls)
 
     Parallel routines
 
     PWSCF        :      3.88s CPU      4.14s WALL

 
   This run was terminated on:  16:42:11  21Apr2023            

=------------------------------------------------------------------------------=
   JOB DONE.
=------------------------------------------------------------------------------=
