
     Program PWSCF v.7.1 starts on 21Apr2023 at 16:42:11 

     This program is part of the open-source Quantum ESPRESSO suite
     for quantum simulation of materials; please cite
         "P. Giannozzi et al., J. Phys.:Condens. Matter 21 395502 (2009);
         "P. Giannozzi et al., J. Phys.:Condens. Matter 29 465901 (2017);
         "P. Giannozzi et al., J. Chem. Phys. 152 154105 (2020);
          URL http://www.quantum-espresso.org", 
     in publications or presentations arising from this work. More details at
     http://www.quantum-espresso.org/quote

     Parallel version (MPI), running on     1 processors

     MPI processes distributed on     1 nodes
     3779 MiB available memory on the printing compute node when the environment starts
 
     Waiting for input...
     Reading input from standard input

     Current dimensions of program PWSCF are:
     Max number of different atomic species (ntypx) = 10
     Max number of k-points (npk) =  40000
     Max angular momentum in pseudopotentials (lmaxx) =  4
     file H.pz-vbc.UPF: wavefunction(s)  1S renormalized

     gamma-point specific algorithms are used
 
     Subspace diagonalization in iterative solution of the eigenvalue problem:
     a serial algorithm will be used

 
     G-vector sticks info
     --------------------
     sticks:   dense  smooth     PW     G-vecs:    dense   smooth      PW
     Sum       10229   10229   2561               778439   778439   97521
 
     Using Slab Decomposition
 


     bravais-lattice index     =            1
     lattice parameter (alat)  =      28.3459  a.u.
     unit-cell volume          =   22775.6289 (a.u.)^3
     number of atoms/cell      =            5
     number of atomic types    =            2
     number of electrons       =         8.00
     number of Kohn-Sham states=            4
     kinetic-energy cutoff     =      40.0000  Ry
     charge density cutoff     =     160.0000  Ry
     scf convergence threshold =      1.0E-06
     mixing beta               =       0.7000
     number of iterations used =            8  plain     mixing
     Exchange-correlation=  SLA  PZ   NOGX NOGC
                           (   1   1   0   0   0   0   0)

     celldm(1)=  28.345892  celldm(2)=   0.000000  celldm(3)=   0.000000
     celldm(4)=   0.000000  celldm(5)=   0.000000  celldm(6)=   0.000000

     crystal axes: (cart. coord. in units of alat)
               a(1) = (   1.000000   0.000000   0.000000 )  
               a(2) = (   0.000000   1.000000   0.000000 )  
               a(3) = (   0.000000   0.000000   1.000000 )  

     reciprocal axes: (cart. coord. in units 2 pi/alat)
               b(1) = (  1.000000  0.000000  0.000000 )  
               b(2) = (  0.000000  1.000000  0.000000 )  
               b(3) = (  0.000000  0.000000  1.000000 )  


     PseudoPot. # 1 for C  read from file:
     ./C.pz-vbc.UPF
     MD5 check sum: ab53dd623bfeb79c5a7b057bc96eae20
     Pseudo is Norm-conserving, Zval =  4.0
     Generated by new atomic code, or converted to UPF format
     Using radial grid of  269 points,  1 beta functions with: 
                l(1) =   0

     PseudoPot. # 2 for H  read from file:
     ./H.pz-vbc.UPF
     MD5 check sum: 90becb985b714f09656c73597998d266
     Pseudo is Norm-conserving, Zval =  1.0
     Generated by new atomic code, or converted to UPF format
     Using radial grid of  131 points,  0 beta functions with: 

     atomic species   valence    mass     pseudopotential
        C              4.00    12.01100     C ( 1.00)
        H              1.00     1.00800     H ( 1.00)

      2 Sym. Ops. (no inversion) found



   Cartesian axes

     site n.     atom                  positions (alat units)
         1           C   tau(   1) = (   0.0000000   0.0000000   0.0000000  )
         2           H   tau(   2) = (   0.0000000   0.0000000   0.0726000  )
         3           H   tau(   3) = (   0.0684479   0.0000000  -0.0242000  )
         4           H   tau(   4) = (  -0.0342240  -0.0592777  -0.0242000  )
         5           H   tau(   5) = (  -0.0342240   0.0592777  -0.0242000  )

     number of k points=     1
                       cart. coord. in units 2pi/alat
        k(    1) = (   0.0000000   0.0000000   0.0000000), wk =   2.0000000

     Dense  grid:   389220 G-vectors     FFT dimensions: ( 120, 120, 120)

     Estimated max dynamical RAM per process >     307.98 MB

     Initial potential from superposition of free atoms

     starting charge       7.9999, renormalised to       8.0000

     negative rho (up, down):  1.575E-02 0.000E+00
     Starting wfcs are    8 randomized atomic wfcs

     total cpu time spent up to now is        0.7 secs

     Self-consistent Calculation

     iteration #  1     ecut=    40.00 Ry     beta= 0.70
     Davidson diagonalization with overlap
     ethr =  1.00E-02,  avg # of iterations =  2.0

     negative rho (up, down):  4.615E-03 0.000E+00

     total cpu time spent up to now is        1.4 secs

     total energy              =     -15.74421544 Ry
     estimated scf accuracy    <       0.72720978 Ry

     iteration #  2     ecut=    40.00 Ry     beta= 0.70
     Davidson diagonalization with overlap
     ethr =  9.09E-03,  avg # of iterations =  2.0

     negative rho (up, down):  2.348E-03 0.000E+00

     total cpu time spent up to now is        1.9 secs

     total energy              =     -15.93885429 Ry
     estimated scf accuracy    <       0.20693201 Ry

     iteration #  3     ecut=    40.00 Ry     beta= 0.70
     Davidson diagonalization with overlap
     ethr =  2.59E-03,  avg # of iterations =  2.0

     negative rho (up, down):  3.180E-04 0.000E+00

     total cpu time spent up to now is        2.5 secs

     total energy              =     -15.96615113 Ry
     estimated scf accuracy    <       0.00597294 Ry

     iteration #  4     ecut=    40.00 Ry     beta= 0.70
     Davidson diagonalization with overlap
     ethr =  7.47E-05,  avg # of iterations =  3.0

     negative rho (up, down):  2.884E-04 0.000E+00

     total cpu time spent up to now is        3.2 secs

     total energy              =     -15.96740755 Ry
     estimated scf accuracy    <       0.00549865 Ry

     iteration #  5     ecut=    40.00 Ry     beta= 0.70
     Davidson diagonalization with overlap
     ethr =  6.87E-05,  avg # of iterations =  2.0

     negative rho (up, down):  3.086E-07 0.000E+00

     total cpu time spent up to now is        3.8 secs

     total energy              =     -15.96851096 Ry
     estimated scf accuracy    <       0.00010634 Ry

     iteration #  6     ecut=    40.00 Ry     beta= 0.70
     Davidson diagonalization with overlap
     ethr =  1.33E-06,  avg # of iterations =  2.0

     negative rho (up, down):  4.385E-07 0.000E+00

     total cpu time spent up to now is        4.5 secs

     total energy              =     -15.96843401 Ry
     estimated scf accuracy    <       0.00020518 Ry

     iteration #  7     ecut=    40.00 Ry     beta= 0.70
     Davidson diagonalization with overlap
     ethr =  1.33E-06,  avg # of iterations =  2.0

     negative rho (up, down):  2.204E-08 0.000E+00

     total cpu time spent up to now is        5.1 secs

     total energy              =     -15.96845389 Ry
     estimated scf accuracy    <       0.00000478 Ry

     iteration #  8     ecut=    40.00 Ry     beta= 0.70
     Davidson diagonalization with overlap
     ethr =  5.98E-08,  avg # of iterations =  3.0

     total cpu time spent up to now is        5.9 secs

     total energy              =     -15.96845630 Ry
     estimated scf accuracy    <       0.00000289 Ry

     iteration #  9     ecut=    40.00 Ry     beta= 0.70
     Davidson diagonalization with overlap
     ethr =  3.61E-08,  avg # of iterations =  2.0

     total cpu time spent up to now is        6.4 secs

     End of self-consistent calculation

          k = 0.0000 0.0000 0.0000 ( 48761 PWs)   bands (ev):

   -16.9616  -9.4318  -9.4316  -9.4315

     highest occupied level (ev):    -9.4315

!    total energy              =     -15.96845667 Ry
     estimated scf accuracy    <       0.00000003 Ry

     The total energy is the sum of the following terms:
     one-electron contribution =     -46.48936528 Ry
     hartree contribution      =      23.94695159 Ry
     xc contribution           =      -6.16548076 Ry
     ewald contribution        =      12.73943778 Ry

     convergence has been achieved in   9 iterations
 
     init_run     :      0.52s CPU      0.70s WALL (       1 calls)
     electrons    :      5.54s CPU      5.67s WALL (       1 calls)

     Called by init_run:
     wfcinit      :      0.20s CPU      0.21s WALL (       1 calls)
     potinit      :      0.13s CPU      0.21s WALL (       1 calls)
     hinit0       :      0.08s CPU      0.14s WALL (       1 calls)

     Called by electrons:
     c_bands      :      2.62s CPU      2.63s WALL (       9 calls)
     sum_band     :      1.01s CPU      1.01s WALL (       9 calls)
     v_of_rho     :      0.88s CPU      0.93s WALL (      10 calls)
     mix_rho      :      0.90s CPU      0.99s WALL (       9 calls)

     Called by c_bands:
     init_us_2    :      0.02s CPU      0.03s WALL (      19 calls)
     init_us_2:cp :      0.02s CPU      0.03s WALL (      19 calls)
     regterg      :      2.60s CPU      2.61s WALL (       9 calls)

     Called by *egterg:
     rdiaghg      :      0.00s CPU      0.00s WALL (      29 calls)
     h_psi        :      2.64s CPU      2.66s WALL (      30 calls)
     g_psi        :      0.01s CPU      0.01s WALL (      20 calls)

     Called by h_psi:
     h_psi:calbec :      0.01s CPU      0.01s WALL (      30 calls)
     vloc_psi     :      2.60s CPU      2.61s WALL (      30 calls)
     add_vuspsi   :      0.01s CPU      0.01s WALL (      30 calls)

     General routines
     calbec       :      0.01s CPU      0.01s WALL (      30 calls)
     fft          :      0.48s CPU      0.48s WALL (      29 calls)
     ffts         :      0.15s CPU      0.15s WALL (       9 calls)
     fftw         :      2.32s CPU      2.32s WALL (     142 calls)
 
     Parallel routines
 
     PWSCF        :      6.07s CPU      6.39s WALL

 
   This run was terminated on:  16:42:18  21Apr2023            

=------------------------------------------------------------------------------=
   JOB DONE.
=------------------------------------------------------------------------------=
