
     Program PROJWFC v.7.1 starts on 19Jul2024 at 16:37:22 

     This program is part of the open-source Quantum ESPRESSO suite
     for quantum simulation of materials; please cite
         "P. Giannozzi et al., J. Phys.:Condens. Matter 21 395502 (2009);
         "P. Giannozzi et al., J. Phys.:Condens. Matter 29 465901 (2017);
         "P. Giannozzi et al., J. Chem. Phys. 152 154105 (2020);
          URL http://www.quantum-espresso.org", 
     in publications or presentations arising from this work. More details at
     http://www.quantum-espresso.org/quote

     Parallel version (MPI), running on     1 processors

     MPI processes distributed on     1 nodes
     4021 MiB available memory on the printing compute node when the environment starts
 

     Reading xml data from directory:

     ./pwscf.save/

     IMPORTANT: XC functional enforced from input :
     Exchange-correlation= PZ
                           (   1   1   0   0   0   0   0)
     Any further DFT definition will be discarded
     Please, verify this is what you really want

 
     G-vector sticks info
     --------------------
     sticks:   dense  smooth     PW     G-vecs:    dense   smooth      PW
     Sum         379     379    121                 4909     4909     941
 
     Using Slab Decomposition
 

     Gaussian broadening (read from input): ngauss,degauss=   0    0.030000


     Calling projwave .... 
     Subspace diagonalization in iterative solution of the eigenvalue problem:
     a serial algorithm will be used

 
  Problem Sizes 
  natomwfc =            8
  nbnd     =            8
  nkstot   =          256
  npwx     =          620
  nkb      =            2
 

     Atomic states used for projection
     (read from pseudopotential files):

     state #   1: atom   1 (C  ), wfc  1 (l=0 m= 1)
     state #   2: atom   1 (C  ), wfc  2 (l=1 m= 1)
     state #   3: atom   1 (C  ), wfc  2 (l=1 m= 2)
     state #   4: atom   1 (C  ), wfc  2 (l=1 m= 3)
     state #   5: atom   2 (C  ), wfc  1 (l=0 m= 1)
     state #   6: atom   2 (C  ), wfc  2 (l=1 m= 1)
     state #   7: atom   2 (C  ), wfc  2 (l=1 m= 2)
     state #   8: atom   2 (C  ), wfc  2 (l=1 m= 3)

 k =   0.0000000000  0.0000000000  0.0000000000
==== e(   1) =    -8.10969 eV ==== 
     psi = 0.497*[#   1]+0.497*[#   5]
    |psi|^2 = 0.994
==== e(   2) =    13.18029 eV ==== 
     psi = 0.165*[#   2]+0.165*[#   3]+0.165*[#   4]+0.165*[#   6]+0.165*[#   7]
          +0.165*[#   8]
    |psi|^2 = 0.993
==== e(   3) =    13.18029 eV ==== 
     psi = 0.165*[#   2]+0.165*[#   3]+0.165*[#   4]+0.165*[#   6]+0.165*[#   7]
          +0.165*[#   8]
    |psi|^2 = 0.993
==== e(   4) =    13.18029 eV ==== 
     psi = 0.165*[#   2]+0.165*[#   3]+0.165*[#   4]+0.165*[#   6]+0.165*[#   7]
          +0.165*[#   8]
    |psi|^2 = 0.993
==== e(   5) =    18.81766 eV ==== 
     psi = 0.163*[#   2]+0.163*[#   3]+0.163*[#   4]+0.163*[#   6]+0.163*[#   7]
          +0.163*[#   8]
    |psi|^2 = 0.979
==== e(   6) =    18.81766 eV ==== 
     psi = 0.163*[#   2]+0.163*[#   3]+0.163*[#   4]+0.163*[#   6]+0.163*[#   7]
          +0.163*[#   8]
    |psi|^2 = 0.979
==== e(   7) =    18.81766 eV ==== 
     psi = 0.163*[#   2]+0.163*[#   3]+0.163*[#   4]+0.163*[#   6]+0.163*[#   7]
          +0.163*[#   8]
    |psi|^2 = 0.979
==== e(   8) =    26.51000 eV ==== 
     psi = 0.485*[#   1]+0.485*[#   5]
    |psi|^2 = 0.970

 k =  -0.0500000000  0.0500000000 -0.0500000000
==== e(   1) =    -8.04099 eV ==== 
     psi = 0.481*[#   1]+0.481*[#   5]+0.005*[#   2]+0.005*[#   3]+0.005*[#   4]
          +0.005*[#   6]+0.005*[#   7]+0.005*[#   8]
    |psi|^2 = 0.994
==== e(   2) =    12.69866 eV ==== 
     psi = 0.163*[#   2]+0.163*[#   3]+0.163*[#   4]+0.163*[#   6]+0.163*[#   7]
          +0.163*[#   8]+0.008*[#   1]+0.008*[#   5]
    |psi|^2 = 0.993
==== e(   3) =    13.05523 eV ==== 
     psi = 0.165*[#   2]+0.165*[#   3]+0.165*[#   4]+0.165*[#   6]+0.165*[#   7]
          +0.165*[#   8]
    |psi|^2 = 0.993
==== e(   4) =    13.05523 eV ==== 
     psi = 0.165*[#   2]+0.165*[#   3]+0.165*[#   4]+0.165*[#   6]+0.165*[#   7]
          +0.165*[#   8]
    |psi|^2 = 0.993
==== e(   5) =    18.98206 eV ==== 
     psi = 0.163*[#   2]+0.163*[#   3]+0.163*[#   4]+0.163*[#   6]+0.163*[#   7]
          +0.163*[#   8]
    |psi|^2 = 0.978
==== e(   6) =    18.98206 eV ==== 
     psi = 0.163*[#   2]+0.163*[#   3]+0.163*[#   4]+0.163*[#   6]+0.163*[#   7]
          +0.163*[#   8]
    |psi|^2 = 0.978
==== e(   7) =    19.12069 eV ==== 
     psi = 0.158*[#   2]+0.158*[#   3]+0.158*[#   4]+0.158*[#   6]+0.158*[#   7]
          +0.158*[#   8]+0.016*[#   1]+0.016*[#   5]
    |psi|^2 = 0.977
==== e(   8) =    26.57198 eV ==== 
     psi = 0.476*[#   1]+0.476*[#   5]+0.003*[#   2]+0.003*[#   3]+0.003*[#   4]
          +0.003*[#   6]+0.003*[#   7]+0.003*[#   8]
    |psi|^2 = 0.968

 k =  -0.1000000000  0.1000000000 -0.1000000000
==== e(   1) =    -7.83513 eV ==== 
     psi = 0.442*[#   1]+0.442*[#   5]+0.018*[#   2]+0.018*[#   3]+0.018*[#   4]
          +0.018*[#   6]+0.018*[#   7]+0.018*[#   8]
    |psi|^2 = 0.994
==== e(   2) =    11.51419 eV ==== 
     psi = 0.156*[#   2]+0.156*[#   3]+0.156*[#   4]+0.156*[#   6]+0.156*[#   7]
          +0.156*[#   8]+0.029*[#   1]+0.029*[#   5]
    |psi|^2 = 0.994
==== e(   3) =    12.74048 eV ==== 
     psi = 0.166*[#   2]+0.166*[#   3]+0.166*[#   4]+0.166*[#   6]+0.166*[#   7]
          +0.166*[#   8]
    |psi|^2 = 0.994
==== e(   4) =    12.74048 eV ==== 
     psi = 0.166*[#   2]+0.166*[#   3]+0.166*[#   4]+0.166*[#   6]+0.166*[#   7]
          +0.166*[#   8]
    |psi|^2 = 0.994
==== e(   5) =    19.41647 eV ==== 
     psi = 0.163*[#   2]+0.163*[#   3]+0.163*[#   4]+0.163*[#   6]+0.163*[#   7]
          +0.163*[#   8]
    |psi|^2 = 0.976
==== e(   6) =    19.41647 eV ==== 
     psi = 0.163*[#   2]+0.163*[#   3]+0.163*[#   4]+0.163*[#   6]+0.163*[#   7]
          +0.163*[#   8]
    |psi|^2 = 0.976
==== e(   7) =    19.77572 eV ==== 
     psi = 0.144*[#   2]+0.144*[#   3]+0.144*[#   4]+0.144*[#   6]+0.144*[#   7]
          +0.144*[#   8]+0.057*[#   1]+0.057*[#   5]
    |psi|^2 = 0.975
==== e(   8) =    26.75750 eV ==== 
     psi = 0.449*[#   1]+0.449*[#   5]+0.011*[#   2]+0.011*[#   3]+0.011*[#   4]
          +0.011*[#   6]+0.011*[#   7]+0.011*[#   8]
    |psi|^2 = 0.961

 k =  -0.1500000000  0.1500000000 -0.1500000000
==== e(   1) =    -7.49367 eV ==== 
     psi = 0.396*[#   1]+0.396*[#   5]+0.034*[#   2]+0.034*[#   3]+0.034*[#   4]
          +0.034*[#   6]+0.034*[#   7]+0.034*[#   8]
    |psi|^2 = 0.994
==== e(   2) =     9.97500 eV ==== 
     psi = 0.146*[#   2]+0.146*[#   3]+0.146*[#   4]+0.146*[#   6]+0.146*[#   7]
          +0.146*[#   8]+0.058*[#   1]+0.058*[#   5]
    |psi|^2 = 0.994
==== e(   3) =    12.31081 eV ==== 
     psi = 0.166*[#   2]+0.166*[#   3]+0.166*[#   4]+0.166*[#   6]+0.166*[#   7]
          +0.166*[#   8]
    |psi|^2 = 0.995
==== e(   4) =    12.31081 eV ==== 
     psi = 0.166*[#   2]+0.166*[#   3]+0.166*[#   4]+0.166*[#   6]+0.166*[#   7]
          +0.166*[#   8]
    |psi|^2 = 0.995
==== e(   5) =    19.98572 eV ==== 
     psi = 0.162*[#   2]+0.162*[#   3]+0.162*[#   4]+0.162*[#   6]+0.162*[#   7]
          +0.162*[#   8]
    |psi|^2 = 0.973
==== e(   6) =    19.98572 eV ==== 
     psi = 0.162*[#   2]+0.162*[#   3]+0.162*[#   4]+0.162*[#   6]+0.162*[#   7]
          +0.162*[#   8]
    |psi|^2 = 0.973
==== e(   7) =    20.44207 eV ==== 
     psi = 0.124*[#   2]+0.124*[#   3]+0.124*[#   4]+0.124*[#   6]+0.124*[#   7]
          +0.124*[#   8]+0.113*[#   1]+0.113*[#   5]
    |psi|^2 = 0.971
==== e(   8) =    27.05904 eV ==== 
     psi = 0.402*[#   1]+0.402*[#   5]+0.024*[#   2]+0.024*[#   3]+0.024*[#   4]
          +0.024*[#   6]+0.024*[#   7]+0.024*[#   8]
    |psi|^2 = 0.946

 k =  -0.2000000000  0.2000000000 -0.2000000000
==== e(   1) =    -7.01762 eV ==== 
     psi = 0.356*[#   1]+0.356*[#   5]+0.047*[#   2]+0.047*[#   3]+0.047*[#   4]
          +0.047*[#   6]+0.047*[#   7]+0.047*[#   8]
    |psi|^2 = 0.993
==== e(   2) =     8.29997 eV ==== 
     psi = 0.137*[#   2]+0.137*[#   3]+0.137*[#   4]+0.137*[#   6]+0.137*[#   7]
          +0.137*[#   8]+0.087*[#   1]+0.087*[#   5]
    |psi|^2 = 0.993
==== e(   3) =    11.85498 eV ==== 
     psi = 0.166*[#   2]+0.166*[#   3]+0.166*[#   4]+0.166*[#   6]+0.166*[#   7]
          +0.166*[#   8]
    |psi|^2 = 0.996
==== e(   4) =    11.85498 eV ==== 
     psi = 0.166*[#   2]+0.166*[#   3]+0.166*[#   4]+0.166*[#   6]+0.166*[#   7]
          +0.166*[#   8]
    |psi|^2 = 0.996
==== e(   5) =    20.55843 eV ==== 
     psi = 0.161*[#   2]+0.161*[#   3]+0.161*[#   4]+0.161*[#   6]+0.161*[#   7]
          +0.161*[#   8]
    |psi|^2 = 0.966
==== e(   6) =    20.55843 eV ==== 
     psi = 0.161*[#   2]+0.161*[#   3]+0.161*[#   4]+0.161*[#   6]+0.161*[#   7]
          +0.161*[#   8]
    |psi|^2 = 0.966
==== e(   7) =    20.98345 eV ==== 
     psi = 0.176*[#   1]+0.176*[#   5]+0.102*[#   2]+0.102*[#   3]+0.102*[#   4]
          +0.102*[#   6]+0.102*[#   7]+0.102*[#   8]
    |psi|^2 = 0.965
==== e(   8) =    27.44961 eV ==== 
     psi = 0.340*[#   1]+0.340*[#   5]+0.040*[#   2]+0.040*[#   3]+0.040*[#   4]
          +0.040*[#   6]+0.040*[#   7]+0.040*[#   8]
    |psi|^2 = 0.920

 k =  -0.2500000000  0.2500000000 -0.2500000000
==== e(   1) =    -6.40948 eV ==== 
     psi = 0.326*[#   1]+0.326*[#   5]+0.057*[#   2]+0.057*[#   3]+0.057*[#   4]
          +0.057*[#   6]+0.057*[#   7]+0.057*[#   8]
    |psi|^2 = 0.993
==== e(   2) =     6.59002 eV ==== 
     psi = 0.129*[#   2]+0.129*[#   3]+0.129*[#   4]+0.129*[#   6]+0.129*[#   7]
          +0.129*[#   8]+0.110*[#   1]+0.110*[#   5]
    |psi|^2 = 0.993
==== e(   3) =    11.42812 eV ==== 
     psi = 0.166*[#   2]+0.166*[#   3]+0.166*[#   4]+0.166*[#   6]+0.166*[#   7]
          +0.166*[#   8]
    |psi|^2 = 0.997
==== e(   4) =    11.42812 eV ==== 
     psi = 0.166*[#   2]+0.166*[#   3]+0.166*[#   4]+0.166*[#   6]+0.166*[#   7]
          +0.166*[#   8]
    |psi|^2 = 0.997
==== e(   5) =    21.04150 eV ==== 
     psi = 0.159*[#   2]+0.159*[#   3]+0.159*[#   4]+0.159*[#   6]+0.159*[#   7]
          +0.159*[#   8]
    |psi|^2 = 0.954
==== e(   6) =    21.04150 eV ==== 
     psi = 0.159*[#   2]+0.159*[#   3]+0.159*[#   4]+0.159*[#   6]+0.159*[#   7]
          +0.159*[#   8]
    |psi|^2 = 0.954
==== e(   7) =    21.38019 eV ==== 
     psi = 0.239*[#   1]+0.239*[#   5]+0.080*[#   2]+0.080*[#   3]+0.080*[#   4]
          +0.080*[#   6]+0.080*[#   7]+0.080*[#   8]
    |psi|^2 = 0.958
==== e(   8) =    27.87180 eV ==== 
     psi = 0.271*[#   1]+0.271*[#   5]+0.055*[#   2]+0.055*[#   3]+0.055*[#   4]
          +0.055*[#   6]+0.055*[#   7]+0.055*[#   8]
    |psi|^2 = 0.875

 k =  -0.3000000000  0.3000000000 -0.3000000000
==== e(   1) =    -5.67331 eV ==== 
     psi = 0.306*[#   1]+0.306*[#   5]+0.063*[#   2]+0.063*[#   3]+0.063*[#   4]
          +0.063*[#   6]+0.063*[#   7]+0.063*[#   8]
    |psi|^2 = 0.993
==== e(   2) =     4.90311 eV ==== 
     psi = 0.127*[#   1]+0.127*[#   5]+0.123*[#   2]+0.123*[#   3]+0.123*[#   4]
          +0.123*[#   6]+0.123*[#   7]+0.123*[#   8]
    |psi|^2 = 0.993
==== e(   3) =    11.05637 eV ==== 
     psi = 0.166*[#   2]+0.166*[#   3]+0.166*[#   4]+0.166*[#   6]+0.166*[#   7]
          +0.166*[#   8]
    |psi|^2 = 0.997
==== e(   4) =    11.05637 eV ==== 
     psi = 0.166*[#   2]+0.166*[#   3]+0.166*[#   4]+0.166*[#   6]+0.166*[#   7]
          +0.166*[#   8]
    |psi|^2 = 0.997
==== e(   5) =    21.37555 eV ==== 
     psi = 0.156*[#   2]+0.156*[#   3]+0.156*[#   4]+0.156*[#   6]+0.156*[#   7]
          +0.156*[#   8]
    |psi|^2 = 0.938
==== e(   6) =    21.37555 eV ==== 
     psi = 0.156*[#   2]+0.156*[#   3]+0.156*[#   4]+0.156*[#   6]+0.156*[#   7]
          +0.156*[#   8]
    |psi|^2 = 0.938
==== e(   7) =    21.66125 eV ==== 
     psi = 0.294*[#   1]+0.294*[#   5]+0.060*[#   2]+0.060*[#   3]+0.060*[#   4]
          +0.060*[#   6]+0.060*[#   7]+0.060*[#   8]
    |psi|^2 = 0.949
==== e(   8) =    28.26054 eV ==== 
     psi = 0.204*[#   1]+0.204*[#   5]+0.067*[#   2]+0.067*[#   3]+0.067*[#   4]
          +0.067*[#   6]+0.067*[#   7]+0.067*[#   8]
    |psi|^2 = 0.810

 k =  -0.3500000000  0.3500000000 -0.3500000000
==== e(   1) =    -4.81686 eV ==== 
     psi = 0.296*[#   1]+0.296*[#   5]+0.067*[#   2]+0.067*[#   3]+0.067*[#   4]
          +0.067*[#   6]+0.067*[#   7]+0.067*[#   8]
    |psi|^2 = 0.993
==== e(   2) =     3.28444 eV ==== 
     psi = 0.136*[#   1]+0.136*[#   5]+0.120*[#   2]+0.120*[#   3]+0.120*[#   4]
          +0.120*[#   6]+0.120*[#   7]+0.120*[#   8]
    |psi|^2 = 0.992
==== e(   3) =    10.75765 eV ==== 
     psi = 0.166*[#   2]+0.166*[#   3]+0.166*[#   4]+0.166*[#   6]+0.166*[#   7]
          +0.166*[#   8]
    |psi|^2 = 0.998
==== e(   4) =    10.75765 eV ==== 
     psi = 0.166*[#   2]+0.166*[#   3]+0.166*[#   4]+0.166*[#   6]+0.166*[#   7]
          +0.166*[#   8]
    |psi|^2 = 0.998
==== e(   5) =    21.56365 eV ==== 
     psi = 0.153*[#   2]+0.153*[#   3]+0.153*[#   4]+0.153*[#   6]+0.153*[#   7]
          +0.153*[#   8]
    |psi|^2 = 0.919
==== e(   6) =    21.56365 eV ==== 
     psi = 0.153*[#   2]+0.153*[#   3]+0.153*[#   4]+0.153*[#   6]+0.153*[#   7]
          +0.153*[#   8]
    |psi|^2 = 0.919
==== e(   7) =    21.85200 eV ==== 
     psi = 0.338*[#   1]+0.338*[#   5]+0.044*[#   2]+0.044*[#   3]+0.044*[#   4]
          +0.044*[#   6]+0.044*[#   7]+0.044*[#   8]
    |psi|^2 = 0.939
==== e(   8) =    28.56508 eV ==== 
     psi = 0.146*[#   1]+0.146*[#   5]+0.073*[#   2]+0.073*[#   3]+0.073*[#   4]
          +0.073*[#   6]+0.073*[#   7]+0.073*[#   8]
    |psi|^2 = 0.728

 k =  -0.4000000000  0.4000000000 -0.4000000000
==== e(   1) =    -3.86011 eV ==== 
     psi = 0.297*[#   1]+0.297*[#   5]+0.067*[#   2]+0.067*[#   3]+0.067*[#   4]
          +0.067*[#   6]+0.067*[#   7]+0.067*[#   8]
    |psi|^2 = 0.994
==== e(   2) =     1.77330 eV ==== 
     psi = 0.135*[#   1]+0.135*[#   5]+0.120*[#   2]+0.120*[#   3]+0.120*[#   4]
          +0.120*[#   6]+0.120*[#   7]+0.120*[#   8]
    |psi|^2 = 0.991
==== e(   3) =    10.53866 eV ==== 
     psi = 0.166*[#   2]+0.166*[#   3]+0.166*[#   4]+0.166*[#   6]+0.166*[#   7]
          +0.166*[#   8]
    |psi|^2 = 0.998
==== e(   4) =    10.53866 eV ==== 
     psi = 0.166*[#   2]+0.166*[#   3]+0.166*[#   4]+0.166*[#   6]+0.166*[#   7]
          +0.166*[#   8]
    |psi|^2 = 0.998
==== e(   5) =    21.64480 eV ==== 
     psi = 0.151*[#   2]+0.151*[#   3]+0.151*[#   4]+0.151*[#   6]+0.151*[#   7]
          +0.151*[#   8]
    |psi|^2 = 0.904
==== e(   6) =    21.64480 eV ==== 
     psi = 0.151*[#   2]+0.151*[#   3]+0.151*[#   4]+0.151*[#   6]+0.151*[#   7]
          +0.151*[#   8]
    |psi|^2 = 0.904
==== e(   7) =    21.97572 eV ==== 
     psi = 0.371*[#   1]+0.371*[#   5]+0.031*[#   2]+0.031*[#   3]+0.031*[#   4]
          +0.031*[#   6]+0.031*[#   7]+0.031*[#   8]
    |psi|^2 = 0.930
==== e(   8) =    28.74986 eV ==== 
     psi = 0.104*[#   1]+0.104*[#   5]+0.074*[#   2]+0.074*[#   3]+0.074*[#   4]
          +0.074*[#   6]+0.074*[#   7]+0.074*[#   8]
    |psi|^2 = 0.648

 k =  -0.4500000000  0.4500000000 -0.4500000000
==== e(   1) =    -2.87412 eV ==== 
     psi = 0.322*[#   1]+0.322*[#   5]+0.058*[#   2]+0.058*[#   3]+0.058*[#   4]
          +0.058*[#   6]+0.058*[#   7]+0.058*[#   8]
    |psi|^2 = 0.996
==== e(   2) =     0.44855 eV ==== 
     psi = 0.128*[#   2]+0.128*[#   3]+0.128*[#   4]+0.128*[#   6]+0.128*[#   7]
          +0.128*[#   8]+0.111*[#   1]+0.111*[#   5]
    |psi|^2 = 0.989
==== e(   3) =    10.40763 eV ==== 
     psi = 0.166*[#   2]+0.166*[#   3]+0.166*[#   4]+0.166*[#   6]+0.166*[#   7]
          +0.166*[#   8]
    |psi|^2 = 0.998
==== e(   4) =    10.40763 eV ==== 
     psi = 0.166*[#   2]+0.166*[#   3]+0.166*[#   4]+0.166*[#   6]+0.166*[#   7]
          +0.166*[#   8]
    |psi|^2 = 0.998
==== e(   5) =    21.66733 eV ==== 
     psi = 0.149*[#   2]+0.149*[#   3]+0.149*[#   4]+0.149*[#   6]+0.149*[#   7]
          +0.149*[#   8]
    |psi|^2 = 0.893
==== e(   6) =    21.66733 eV ==== 
     psi = 0.149*[#   2]+0.149*[#   3]+0.149*[#   4]+0.149*[#   6]+0.149*[#   7]
          +0.149*[#   8]
    |psi|^2 = 0.893
==== e(   7) =    22.04797 eV ==== 
     psi = 0.390*[#   1]+0.390*[#   5]+0.024*[#   2]+0.024*[#   3]+0.024*[#   4]
          +0.024*[#   6]+0.024*[#   7]+0.024*[#   8]
    |psi|^2 = 0.923
==== e(   8) =    28.84299 eV ==== 
     psi = 0.080*[#   1]+0.080*[#   5]+0.072*[#   2]+0.072*[#   3]+0.072*[#   4]
          +0.072*[#   6]+0.072*[#   7]+0.072*[#   8]
    |psi|^2 = 0.593

 k =   0.5000000000 -0.5000000000  0.5000000000
==== e(   1) =    -2.28184 eV ==== 
     psi = 0.374*[#   1]+0.374*[#   5]+0.042*[#   2]+0.042*[#   3]+0.042*[#   4]
          +0.042*[#   6]+0.042*[#   7]+0.042*[#   8]
    |psi|^2 = 0.998
==== e(   2) =    -0.26255 eV ==== 
     psi = 0.145*[#   2]+0.145*[#   3]+0.145*[#   4]+0.145*[#   6]+0.145*[#   7]
          +0.145*[#   8]+0.059*[#   1]+0.059*[#   5]
    |psi|^2 = 0.987
==== e(   3) =    10.36295 eV ==== 
     psi = 0.166*[#   2]+0.166*[#   3]+0.166*[#   4]+0.166*[#   6]+0.166*[#   7]
          +0.166*[#   8]
    |psi|^2 = 0.998
==== e(   4) =    10.36295 eV ==== 
     psi = 0.166*[#   2]+0.166*[#   3]+0.166*[#   4]+0.166*[#   6]+0.166*[#   7]
          +0.166*[#   8]
    |psi|^2 = 0.998
==== e(   5) =    21.66847 eV ==== 
     psi = 0.148*[#   2]+0.148*[#   3]+0.148*[#   4]+0.148*[#   6]+0.148*[#   7]
          +0.148*[#   8]
    |psi|^2 = 0.890
==== e(   6) =    21.66847 eV ==== 
     psi = 0.148*[#   2]+0.148*[#   3]+0.148*[#   4]+0.148*[#   6]+0.148*[#   7]
          +0.148*[#   8]
    |psi|^2 = 0.890
==== e(   7) =    22.06927 eV ==== 
     psi = 0.397*[#   1]+0.397*[#   5]+0.021*[#   2]+0.021*[#   3]+0.021*[#   4]
          +0.021*[#   6]+0.021*[#   7]+0.021*[#   8]
    |psi|^2 = 0.921
==== e(   8) =    28.86389 eV ==== 
     psi = 0.072*[#   1]+0.072*[#   5]+0.071*[#   2]+0.071*[#   3]+0.071*[#   4]
          +0.071*[#   6]+0.071*[#   7]+0.071*[#   8]
    |psi|^2 = 0.574

 k =   0.0000000000  0.1000000000  0.0000000000
==== e(   1) =    -8.01810 eV ==== 
     psi = 0.476*[#   1]+0.476*[#   5]+0.007*[#   2]+0.007*[#   3]+0.007*[#   4]
          +0.007*[#   6]+0.007*[#   7]+0.007*[#   8]
    |psi|^2 = 0.994
==== e(   2) =    12.80737 eV ==== 
     psi = 0.166*[#   2]+0.166*[#   3]+0.166*[#   4]+0.166*[#   6]+0.166*[#   7]
          +0.166*[#   8]
    |psi|^2 = 0.993
==== e(   3) =    12.80737 eV ==== 
     psi = 0.166*[#   2]+0.166*[#   3]+0.166*[#   4]+0.166*[#   6]+0.166*[#   7]
          +0.166*[#   8]
    |psi|^2 = 0.993
==== e(   4) =    12.97053 eV ==== 
     psi = 0.162*[#   2]+0.162*[#   3]+0.162*[#   4]+0.162*[#   6]+0.162*[#   7]
          +0.162*[#   8]+0.009*[#   1]+0.009*[#   5]
    |psi|^2 = 0.993
==== e(   5) =    18.73890 eV ==== 
     psi = 0.156*[#   2]+0.156*[#   3]+0.156*[#   4]+0.156*[#   6]+0.156*[#   7]
          +0.156*[#   8]+0.021*[#   1]+0.021*[#   5]
    |psi|^2 = 0.978
==== e(   6) =    19.27556 eV ==== 
     psi = 0.163*[#   2]+0.163*[#   3]+0.163*[#   4]+0.163*[#   6]+0.163*[#   7]
          +0.163*[#   8]
    |psi|^2 = 0.977
==== e(   7) =    19.27556 eV ==== 
     psi = 0.163*[#   2]+0.163*[#   3]+0.163*[#   4]+0.163*[#   6]+0.163*[#   7]
          +0.163*[#   8]
    |psi|^2 = 0.977
==== e(   8) =    26.57942 eV ==== 
     psi = 0.473*[#   1]+0.473*[#   5]+0.003*[#   2]+0.003*[#   3]+0.003*[#   4]
          +0.003*[#   6]+0.003*[#   7]+0.003*[#   8]
    |psi|^2 = 0.966

 k =  -0.0500000000  0.1500000000 -0.0500000000
==== e(   1) =    -7.85797 eV ==== 
     psi = 0.445*[#   1]+0.445*[#   5]+0.017*[#   2]+0.017*[#   3]+0.017*[#   4]
          +0.017*[#   6]+0.017*[#   7]+0.017*[#   8]
    |psi|^2 = 0.994
==== e(   2) =    11.90357 eV ==== 
     psi = 0.160*[#   2]+0.160*[#   3]+0.160*[#   4]+0.160*[#   6]+0.160*[#   7]
          +0.160*[#   8]+0.018*[#   1]+0.018*[#   5]
    |psi|^2 = 0.994
==== e(   3) =    12.40335 eV ==== 
     psi = 0.166*[#   2]+0.166*[#   3]+0.166*[#   4]+0.166*[#   6]+0.166*[#   7]
          +0.166*[#   8]
    |psi|^2 = 0.994
==== e(   4) =    12.84123 eV ==== 
     psi = 0.163*[#   2]+0.163*[#   3]+0.163*[#   4]+0.163*[#   6]+0.163*[#   7]
          +0.163*[#   8]+0.008*[#   1]+0.008*[#   5]
    |psi|^2 = 0.993
==== e(   5) =    18.84375 eV ==== 
     psi = 0.152*[#   2]+0.152*[#   3]+0.152*[#   4]+0.152*[#   6]+0.152*[#   7]
          +0.152*[#   8]+0.033*[#   1]+0.033*[#   5]
    |psi|^2 = 0.977
==== e(   6) =    19.80026 eV ==== 
     psi = 0.163*[#   2]+0.163*[#   3]+0.163*[#   4]+0.163*[#   6]+0.163*[#   7]
          +0.163*[#   8]
    |psi|^2 = 0.975
==== e(   7) =    19.85873 eV ==== 
     psi = 0.156*[#   2]+0.156*[#   3]+0.156*[#   4]+0.156*[#   6]+0.156*[#   7]
          +0.156*[#   8]+0.018*[#   1]+0.018*[#   5]
    |psi|^2 = 0.975
==== e(   8) =    26.68328 eV ==== 
     psi = 0.452*[#   1]+0.452*[#   5]+0.009*[#   2]+0.009*[#   3]+0.009*[#   4]
          +0.009*[#   6]+0.009*[#   7]+0.009*[#   8]
    |psi|^2 = 0.957

 k =  -0.1000000000  0.2000000000 -0.1000000000
==== e(   1) =    -7.56187 eV ==== 
     psi = 0.403*[#   1]+0.403*[#   5]+0.031*[#   2]+0.031*[#   3]+0.031*[#   4]
          +0.031*[#   6]+0.031*[#   7]+0.031*[#   8]
    |psi|^2 = 0.994
==== e(   2) =    10.49287 eV ==== 
     psi = 0.151*[#   2]+0.151*[#   3]+0.151*[#   4]+0.151*[#   6]+0.151*[#   7]
          +0.151*[#   8]+0.045*[#   1]+0.045*[#   5]
    |psi|^2 = 0.994
==== e(   3) =    11.93829 eV ==== 
     psi = 0.166*[#   2]+0.166*[#   3]+0.166*[#   4]+0.166*[#   6]+0.166*[#   7]
          +0.166*[#   8]
    |psi|^2 = 0.995
==== e(   4) =    12.55335 eV ==== 
     psi = 0.163*[#   2]+0.163*[#   3]+0.163*[#   4]+0.163*[#   6]+0.163*[#   7]
          +0.163*[#   8]+0.009*[#   1]+0.009*[#   5]
    |psi|^2 = 0.994
==== e(   5) =    19.23441 eV ==== 
     psi = 0.151*[#   2]+0.151*[#   3]+0.151*[#   4]+0.151*[#   6]+0.151*[#   7]
          +0.151*[#   8]+0.035*[#   1]+0.035*[#   5]
    |psi|^2 = 0.975
==== e(   6) =    20.42882 eV ==== 
     psi = 0.162*[#   2]+0.162*[#   3]+0.162*[#   4]+0.162*[#   6]+0.162*[#   7]
          +0.162*[#   8]
    |psi|^2 = 0.972
==== e(   7) =    20.53354 eV ==== 
     psi = 0.141*[#   2]+0.141*[#   3]+0.141*[#   4]+0.141*[#   6]+0.141*[#   7]
          +0.141*[#   8]+0.063*[#   1]+0.063*[#   5]
    |psi|^2 = 0.972
==== e(   8) =    26.87704 eV ==== 
     psi = 0.410*[#   1]+0.410*[#   5]+0.020*[#   2]+0.020*[#   3]+0.020*[#   4]
          +0.020*[#   6]+0.020*[#   7]+0.020*[#   8]
    |psi|^2 = 0.938

 k =  -0.1500000000  0.2500000000 -0.1500000000
==== e(   1) =    -7.13045 eV ==== 
     psi = 0.363*[#   1]+0.363*[#   5]+0.044*[#   2]+0.044*[#   3]+0.044*[#   4]
          +0.044*[#   6]+0.044*[#   7]+0.044*[#   8]
    |psi|^2 = 0.993
==== e(   2) =     8.87507 eV ==== 
     psi = 0.141*[#   2]+0.141*[#   3]+0.141*[#   4]+0.141*[#   6]+0.141*[#   7]
          +0.141*[#   8]+0.075*[#   1]+0.075*[#   5]
    |psi|^2 = 0.994
==== e(   3) =    11.47347 eV ==== 
     psi = 0.166*[#   2]+0.166*[#   3]+0.166*[#   4]+0.166*[#   6]+0.166*[#   7]
          +0.166*[#   8]
    |psi|^2 = 0.996
==== e(   4) =    12.14681 eV ==== 
     psi = 0.163*[#   2]+0.163*[#   3]+0.163*[#   4]+0.163*[#   6]+0.163*[#   7]
          +0.163*[#   8]+0.009*[#   1]+0.009*[#   5]
    |psi|^2 = 0.995
==== e(   5) =    19.77555 eV ==== 
     psi = 0.151*[#   2]+0.151*[#   3]+0.151*[#   4]+0.151*[#   6]+0.151*[#   7]
          +0.151*[#   8]+0.034*[#   1]+0.034*[#   5]
    |psi|^2 = 0.970
==== e(   6) =    21.04097 eV ==== 
     psi = 0.161*[#   2]+0.161*[#   3]+0.161*[#   4]+0.161*[#   6]+0.161*[#   7]
          +0.161*[#   8]
    |psi|^2 = 0.966
==== e(   7) =    21.11158 eV ==== 
     psi = 0.121*[#   2]+0.121*[#   3]+0.121*[#   4]+0.121*[#   6]+0.121*[#   7]
          +0.121*[#   8]+0.120*[#   1]+0.120*[#   5]
    |psi|^2 = 0.967
==== e(   8) =    27.14500 eV ==== 
     psi = 0.351*[#   1]+0.351*[#   5]+0.034*[#   2]+0.034*[#   3]+0.034*[#   4]
          +0.034*[#   6]+0.034*[#   7]+0.034*[#   8]
    |psi|^2 = 0.903

 k =  -0.2000000000  0.3000000000 -0.2000000000
==== e(   1) =    -6.56640 eV ==== 
     psi = 0.331*[#   1]+0.331*[#   5]+0.055*[#   2]+0.055*[#   3]+0.055*[#   4]
          +0.055*[#   6]+0.055*[#   7]+0.055*[#   8]
    |psi|^2 = 0.993
==== e(   2) =     7.18471 eV ==== 
     psi = 0.132*[#   2]+0.132*[#   3]+0.132*[#   4]+0.132*[#   6]+0.132*[#   7]
          +0.132*[#   8]+0.100*[#   1]+0.100*[#   5]
    |psi|^2 = 0.994
==== e(   3) =    11.05450 eV ==== 
     psi = 0.166*[#   2]+0.166*[#   3]+0.166*[#   4]+0.166*[#   6]+0.166*[#   7]
          +0.166*[#   8]
    |psi|^2 = 0.997
==== e(   4) =    11.69778 eV ==== 
     psi = 0.163*[#   2]+0.163*[#   3]+0.163*[#   4]+0.163*[#   6]+0.163*[#   7]
          +0.163*[#   8]+0.010*[#   1]+0.010*[#   5]
    |psi|^2 = 0.996
==== e(   5) =    20.31810 eV ==== 
     psi = 0.149*[#   2]+0.149*[#   3]+0.149*[#   4]+0.149*[#   6]+0.149*[#   7]
          +0.149*[#   8]+0.033*[#   1]+0.033*[#   5]
    |psi|^2 = 0.961
==== e(   6) =    21.54160 eV ==== 
     psi = 0.159*[#   2]+0.159*[#   3]+0.159*[#   4]+0.159*[#   6]+0.159*[#   7]
          +0.159*[#   8]
    |psi|^2 = 0.956
==== e(   7) =    21.54863 eV ==== 
     psi = 0.181*[#   1]+0.181*[#   5]+0.100*[#   2]+0.100*[#   3]+0.100*[#   4]
          +0.100*[#   6]+0.100*[#   7]+0.100*[#   8]
    |psi|^2 = 0.960
==== e(   8) =    27.46569 eV ==== 
     psi = 0.284*[#   1]+0.284*[#   5]+0.048*[#   2]+0.048*[#   3]+0.048*[#   4]
          +0.048*[#   6]+0.048*[#   7]+0.048*[#   8]
    |psi|^2 = 0.855

 k =  -0.2500000000  0.3500000000 -0.2500000000
==== e(   1) =    -5.87298 eV ==== 
     psi = 0.309*[#   1]+0.309*[#   5]+0.062*[#   2]+0.062*[#   3]+0.062*[#   4]
          +0.062*[#   6]+0.062*[#   7]+0.062*[#   8]
    |psi|^2 = 0.993
==== e(   2) =     5.49548 eV ==== 
     psi = 0.126*[#   2]+0.126*[#   3]+0.126*[#   4]+0.126*[#   6]+0.126*[#   7]
          +0.126*[#   8]+0.120*[#   1]+0.120*[#   5]
    |psi|^2 = 0.993
==== e(   3) =    10.70888 eV ==== 
     psi = 0.166*[#   2]+0.166*[#   3]+0.166*[#   4]+0.166*[#   6]+0.166*[#   7]
          +0.166*[#   8]
    |psi|^2 = 0.997
==== e(   4) =    11.26125 eV ==== 
     psi = 0.163*[#   2]+0.163*[#   3]+0.163*[#   4]+0.163*[#   6]+0.163*[#   7]
          +0.163*[#   8]+0.009*[#   1]+0.009*[#   5]
    |psi|^2 = 0.997
==== e(   5) =    20.76696 eV ==== 
     psi = 0.146*[#   2]+0.146*[#   3]+0.146*[#   4]+0.146*[#   6]+0.146*[#   7]
          +0.146*[#   8]+0.034*[#   1]+0.034*[#   5]
    |psi|^2 = 0.945
==== e(   6) =    21.85413 eV ==== 
     psi = 0.236*[#   1]+0.236*[#   5]+0.080*[#   2]+0.080*[#   3]+0.080*[#   4]
          +0.080*[#   6]+0.080*[#   7]+0.080*[#   8]
    |psi|^2 = 0.951
==== e(   7) =    21.87416 eV ==== 
     psi = 0.157*[#   2]+0.157*[#   3]+0.157*[#   4]+0.157*[#   6]+0.157*[#   7]
          +0.157*[#   8]
    |psi|^2 = 0.941
==== e(   8) =    27.82319 eV ==== 
     psi = 0.220*[#   1]+0.220*[#   5]+0.060*[#   2]+0.060*[#   3]+0.060*[#   4]
          +0.060*[#   6]+0.060*[#   7]+0.060*[#   8]
    |psi|^2 = 0.800

 k =  -0.3000000000  0.4000000000 -0.3000000000
==== e(   1) =    -5.05599 eV ==== 
     psi = 0.296*[#   1]+0.296*[#   5]+0.067*[#   2]+0.067*[#   3]+0.067*[#   4]
          +0.067*[#   6]+0.067*[#   7]+0.067*[#   8]
    |psi|^2 = 0.993
==== e(   2) =     3.85828 eV ==== 
     psi = 0.132*[#   1]+0.132*[#   5]+0.121*[#   2]+0.121*[#   3]+0.121*[#   4]
          +0.121*[#   6]+0.121*[#   7]+0.121*[#   8]
    |psi|^2 = 0.993
==== e(   3) =    10.45008 eV ==== 
     psi = 0.166*[#   2]+0.166*[#   3]+0.166*[#   4]+0.166*[#   6]+0.166*[#   7]
          +0.166*[#   8]
    |psi|^2 = 0.998
==== e(   4) =    10.87029 eV ==== 
     psi = 0.163*[#   2]+0.163*[#   3]+0.163*[#   4]+0.163*[#   6]+0.163*[#   7]
          +0.163*[#   8]+0.009*[#   1]+0.009*[#   5]
    |psi|^2 = 0.998
==== e(   5) =    21.08021 eV ==== 
     psi = 0.143*[#   2]+0.143*[#   3]+0.143*[#   4]+0.143*[#   6]+0.143*[#   7]
          +0.143*[#   8]+0.033*[#   1]+0.033*[#   5]
    |psi|^2 = 0.924
==== e(   6) =    22.03823 eV ==== 
     psi = 0.154*[#   2]+0.154*[#   3]+0.154*[#   4]+0.154*[#   6]+0.154*[#   7]
          +0.154*[#   8]
    |psi|^2 = 0.923
==== e(   7) =    22.06211 eV ==== 
     psi = 0.284*[#   1]+0.284*[#   5]+0.062*[#   2]+0.062*[#   3]+0.062*[#   4]
          +0.062*[#   6]+0.062*[#   7]+0.062*[#   8]
    |psi|^2 = 0.940
==== e(   8) =    28.19999 eV ==== 
     psi = 0.164*[#   1]+0.164*[#   5]+0.069*[#   2]+0.069*[#   3]+0.069*[#   4]
          +0.069*[#   6]+0.069*[#   7]+0.069*[#   8]
    |psi|^2 = 0.741

 k =  -0.3500000000  0.4500000000 -0.3500000000
==== e(   1) =    -4.13003 eV ==== 
     psi = 0.293*[#   1]+0.293*[#   5]+0.068*[#   2]+0.068*[#   3]+0.068*[#   4]
          +0.068*[#   6]+0.068*[#   7]+0.068*[#   8]
    |psi|^2 = 0.993
==== e(   2) =     2.31224 eV ==== 
     psi = 0.136*[#   1]+0.136*[#   5]+0.120*[#   2]+0.120*[#   3]+0.120*[#   4]
          +0.120*[#   6]+0.120*[#   7]+0.120*[#   8]
    |psi|^2 = 0.992
==== e(   3) =    10.28157 eV ==== 
     psi = 0.166*[#   2]+0.166*[#   3]+0.166*[#   4]+0.166*[#   6]+0.166*[#   7]
          +0.166*[#   8]
    |psi|^2 = 0.998
==== e(   4) =    10.54277 eV ==== 
     psi = 0.163*[#   2]+0.163*[#   3]+0.163*[#   4]+0.163*[#   6]+0.163*[#   7]
          +0.163*[#   8]+0.009*[#   1]+0.009*[#   5]
    |psi|^2 = 0.998
==== e(   5) =    21.28042 eV ==== 
     psi = 0.141*[#   2]+0.141*[#   3]+0.141*[#   4]+0.141*[#   6]+0.141*[#   7]
          +0.141*[#   8]+0.030*[#   1]+0.030*[#   5]
    |psi|^2 = 0.904
==== e(   6) =    22.06426 eV ==== 
     psi = 0.151*[#   2]+0.151*[#   3]+0.151*[#   4]+0.151*[#   6]+0.151*[#   7]
          +0.151*[#   8]
    |psi|^2 = 0.906
==== e(   7) =    22.19480 eV ==== 
     psi = 0.323*[#   1]+0.323*[#   5]+0.047*[#   2]+0.047*[#   3]+0.047*[#   4]
          +0.047*[#   6]+0.047*[#   7]+0.047*[#   8]
    |psi|^2 = 0.930
==== e(   8) =    28.53218 eV ==== 
     psi = 0.121*[#   1]+0.121*[#   5]+0.073*[#   2]+0.073*[#   3]+0.073*[#   4]
          +0.073*[#   6]+0.073*[#   7]+0.073*[#   8]
    |psi|^2 = 0.681

 k =  -0.4000000000  0.5000000000 -0.4000000000
==== e(   1) =    -3.13896 eV ==== 
     psi = 0.307*[#   1]+0.307*[#   5]+0.063*[#   2]+0.063*[#   3]+0.063*[#   4]
          +0.063*[#   6]+0.063*[#   7]+0.063*[#   8]
    |psi|^2 = 0.995
==== e(   2) =     0.91132 eV ==== 
     psi = 0.124*[#   2]+0.124*[#   3]+0.124*[#   4]+0.124*[#   6]+0.124*[#   7]
          +0.124*[#   8]+0.122*[#   1]+0.122*[#   5]
    |psi|^2 = 0.990
==== e(   3) =    10.20865 eV ==== 
     psi = 0.166*[#   2]+0.166*[#   3]+0.166*[#   4]+0.166*[#   6]+0.166*[#   7]
          +0.166*[#   8]
    |psi|^2 = 0.998
==== e(   4) =    10.29032 eV ==== 
     psi = 0.163*[#   2]+0.163*[#   3]+0.163*[#   4]+0.163*[#   6]+0.163*[#   7]
          +0.163*[#   8]+0.009*[#   1]+0.009*[#   5]
    |psi|^2 = 0.998
==== e(   5) =    21.41478 eV ==== 
     psi = 0.139*[#   2]+0.139*[#   3]+0.139*[#   4]+0.139*[#   6]+0.139*[#   7]
          +0.139*[#   8]+0.026*[#   1]+0.026*[#   5]
    |psi|^2 = 0.889
==== e(   6) =    22.00794 eV ==== 
     psi = 0.149*[#   2]+0.149*[#   3]+0.149*[#   4]+0.149*[#   6]+0.149*[#   7]
          +0.149*[#   8]
    |psi|^2 = 0.895
==== e(   7) =    22.27137 eV ==== 
     psi = 0.351*[#   1]+0.351*[#   5]+0.037*[#   2]+0.037*[#   3]+0.037*[#   4]
          +0.037*[#   6]+0.037*[#   7]+0.037*[#   8]
    |psi|^2 = 0.922
==== e(   8) =    28.76474 eV ==== 
     psi = 0.092*[#   1]+0.092*[#   5]+0.074*[#   2]+0.074*[#   3]+0.074*[#   4]
          +0.074*[#   6]+0.074*[#   7]+0.074*[#   8]
    |psi|^2 = 0.630

 k =   0.5500000000 -0.4500000000  0.5500000000
==== e(   1) =    -2.31245 eV ==== 
     psi = 0.359*[#   1]+0.359*[#   5]+0.046*[#   2]+0.046*[#   3]+0.046*[#   4]
          +0.046*[#   6]+0.046*[#   7]+0.046*[#   8]
    |psi|^2 = 0.998
==== e(   2) =    -0.10369 eV ==== 
     psi = 0.141*[#   2]+0.141*[#   3]+0.141*[#   4]+0.141*[#   6]+0.141*[#   7]
          +0.141*[#   8]+0.071*[#   1]+0.071*[#   5]
    |psi|^2 = 0.988
==== e(   3) =    10.12231 eV ==== 
     psi = 0.164*[#   2]+0.164*[#   3]+0.164*[#   4]+0.164*[#   6]+0.164*[#   7]
          +0.164*[#   8]+0.008*[#   1]+0.008*[#   5]
    |psi|^2 = 0.998
==== e(   4) =    10.23043 eV ==== 
     psi = 0.166*[#   2]+0.166*[#   3]+0.166*[#   4]+0.166*[#   6]+0.166*[#   7]
          +0.166*[#   8]
    |psi|^2 = 0.998
==== e(   5) =    21.52681 eV ==== 
     psi = 0.139*[#   2]+0.139*[#   3]+0.139*[#   4]+0.139*[#   6]+0.139*[#   7]
          +0.139*[#   8]+0.023*[#   1]+0.023*[#   5]
    |psi|^2 = 0.882
==== e(   6) =    21.91436 eV ==== 
     psi = 0.148*[#   2]+0.148*[#   3]+0.148*[#   4]+0.148*[#   6]+0.148*[#   7]
          +0.148*[#   8]
    |psi|^2 = 0.890
==== e(   7) =    22.30168 eV ==== 
     psi = 0.366*[#   1]+0.366*[#   5]+0.031*[#   2]+0.031*[#   3]+0.031*[#   4]
          +0.031*[#   6]+0.031*[#   7]+0.031*[#   8]
    |psi|^2 = 0.917
==== e(   8) =    28.88104 eV ==== 
     psi = 0.079*[#   1]+0.079*[#   5]+0.074*[#   2]+0.074*[#   3]+0.074*[#   4]
          +0.074*[#   6]+0.074*[#   7]+0.074*[#   8]
    |psi|^2 = 0.602

 k =   0.5000000000 -0.4000000000  0.5000000000
==== e(   1) =    -2.53009 eV ==== 
     psi = 0.338*[#   1]+0.338*[#   5]+0.053*[#   2]+0.053*[#   3]+0.053*[#   4]
          +0.053*[#   6]+0.053*[#   7]+0.053*[#   8]
    |psi|^2 = 0.997
==== e(   2) =     0.15178 eV ==== 
     psi = 0.134*[#   2]+0.134*[#   3]+0.134*[#   4]+0.134*[#   6]+0.134*[#   7]
          +0.134*[#   8]+0.092*[#   1]+0.092*[#   5]
    |psi|^2 = 0.989
==== e(   3) =    10.04010 eV ==== 
     psi = 0.164*[#   2]+0.164*[#   3]+0.164*[#   4]+0.164*[#   6]+0.164*[#   7]
          +0.164*[#   8]+0.009*[#   1]+0.009*[#   5]
    |psi|^2 = 0.998
==== e(   4) =    10.34201 eV ==== 
     psi = 0.166*[#   2]+0.166*[#   3]+0.166*[#   4]+0.166*[#   6]+0.166*[#   7]
          +0.166*[#   8]
    |psi|^2 = 0.998
==== e(   5) =    21.63725 eV ==== 
     psi = 0.140*[#   2]+0.140*[#   3]+0.140*[#   4]+0.140*[#   6]+0.140*[#   7]
          +0.140*[#   8]+0.020*[#   1]+0.020*[#   5]
    |psi|^2 = 0.882
==== e(   6) =    21.80631 eV ==== 
     psi = 0.149*[#   2]+0.149*[#   3]+0.149*[#   4]+0.149*[#   6]+0.149*[#   7]
          +0.149*[#   8]
    |psi|^2 = 0.893
==== e(   7) =    22.28633 eV ==== 
     psi = 0.366*[#   1]+0.366*[#   5]+0.031*[#   2]+0.031*[#   3]+0.031*[#   4]
          +0.031*[#   6]+0.031*[#   7]+0.031*[#   8]
    |psi|^2 = 0.918
==== e(   8) =    28.88099 eV ==== 
     psi = 0.081*[#   1]+0.081*[#   5]+0.074*[#   2]+0.074*[#   3]+0.074*[#   4]
          +0.074*[#   6]+0.074*[#   7]+0.074*[#   8]
    |psi|^2 = 0.609

 k =   0.4500000000 -0.3500000000  0.4500000000
==== e(   1) =    -3.47077 eV ==== 
     psi = 0.300*[#   1]+0.300*[#   5]+0.066*[#   2]+0.066*[#   3]+0.066*[#   4]
          +0.066*[#   6]+0.066*[#   7]+0.066*[#   8]
    |psi|^2 = 0.994
==== e(   2) =     1.35584 eV ==== 
     psi = 0.130*[#   1]+0.130*[#   5]+0.122*[#   2]+0.122*[#   3]+0.122*[#   4]
          +0.122*[#   6]+0.122*[#   7]+0.122*[#   8]
    |psi|^2 = 0.991
==== e(   3) =    10.04911 eV ==== 
     psi = 0.163*[#   2]+0.163*[#   3]+0.163*[#   4]+0.163*[#   6]+0.163*[#   7]
          +0.163*[#   8]+0.009*[#   1]+0.009*[#   5]
    |psi|^2 = 0.998
==== e(   4) =    10.53963 eV ==== 
     psi = 0.166*[#   2]+0.166*[#   3]+0.166*[#   4]+0.166*[#   6]+0.166*[#   7]
          +0.166*[#   8]
    |psi|^2 = 0.998
==== e(   5) =    21.68006 eV ==== 
     psi = 0.150*[#   2]+0.150*[#   3]+0.150*[#   4]+0.150*[#   6]+0.150*[#   7]
          +0.150*[#   8]
    |psi|^2 = 0.903
==== e(   6) =    21.74225 eV ==== 
     psi = 0.142*[#   2]+0.142*[#   3]+0.142*[#   4]+0.142*[#   6]+0.142*[#   7]
          +0.142*[#   8]+0.020*[#   1]+0.020*[#   5]
    |psi|^2 = 0.890
==== e(   7) =    22.22386 eV ==== 
     psi = 0.350*[#   1]+0.350*[#   5]+0.037*[#   2]+0.037*[#   3]+0.037*[#   4]
          +0.037*[#   6]+0.037*[#   7]+0.037*[#   8]
    |psi|^2 = 0.922
==== e(   8) =    28.76149 eV ==== 
     psi = 0.100*[#   1]+0.100*[#   5]+0.075*[#   2]+0.075*[#   3]+0.075*[#   4]
          +0.075*[#   6]+0.075*[#   7]+0.075*[#   8]
    |psi|^2 = 0.650

 k =   0.4000000000 -0.3000000000  0.4000000000
==== e(   1) =    -4.44943 eV ==== 
     psi = 0.293*[#   1]+0.293*[#   5]+0.068*[#   2]+0.068*[#   3]+0.068*[#   4]
          +0.068*[#   6]+0.068*[#   7]+0.068*[#   8]
    |psi|^2 = 0.993
==== e(   2) =     2.81534 eV ==== 
     psi = 0.136*[#   1]+0.136*[#   5]+0.120*[#   2]+0.120*[#   3]+0.120*[#   4]
          +0.120*[#   6]+0.120*[#   7]+0.120*[#   8]
    |psi|^2 = 0.992
==== e(   3) =    10.15189 eV ==== 
     psi = 0.163*[#   2]+0.163*[#   3]+0.163*[#   4]+0.163*[#   6]+0.163*[#   7]
          +0.163*[#   8]+0.009*[#   1]+0.009*[#   5]
    |psi|^2 = 0.998
==== e(   4) =    10.82048 eV ==== 
     psi = 0.166*[#   2]+0.166*[#   3]+0.166*[#   4]+0.166*[#   6]+0.166*[#   7]
          +0.166*[#   8]
    |psi|^2 = 0.998
==== e(   5) =    21.51278 eV ==== 
     psi = 0.153*[#   2]+0.153*[#   3]+0.153*[#   4]+0.153*[#   6]+0.153*[#   7]
          +0.153*[#   8]
    |psi|^2 = 0.918
==== e(   6) =    21.81056 eV ==== 
     psi = 0.144*[#   2]+0.144*[#   3]+0.144*[#   4]+0.144*[#   6]+0.144*[#   7]
          +0.144*[#   8]+0.022*[#   1]+0.022*[#   5]
    |psi|^2 = 0.905
==== e(   7) =    22.10833 eV ==== 
     psi = 0.321*[#   1]+0.321*[#   5]+0.048*[#   2]+0.048*[#   3]+0.048*[#   4]
          +0.048*[#   6]+0.048*[#   7]+0.048*[#   8]
    |psi|^2 = 0.930
==== e(   8) =    28.52204 eV ==== 
     psi = 0.136*[#   1]+0.136*[#   5]+0.073*[#   2]+0.073*[#   3]+0.073*[#   4]
          +0.073*[#   6]+0.073*[#   7]+0.073*[#   8]
    |psi|^2 = 0.711

 k =   0.3500000000 -0.2500000000  0.3500000000
==== e(   1) =    -5.34138 eV ==== 
     psi = 0.299*[#   1]+0.299*[#   5]+0.066*[#   2]+0.066*[#   3]+0.066*[#   4]
          +0.066*[#   6]+0.066*[#   7]+0.066*[#   8]
    |psi|^2 = 0.993
==== e(   2) =     4.39702 eV ==== 
     psi = 0.129*[#   1]+0.129*[#   5]+0.123*[#   2]+0.123*[#   3]+0.123*[#   4]
          +0.123*[#   6]+0.123*[#   7]+0.123*[#   8]
    |psi|^2 = 0.993
==== e(   3) =    10.34766 eV ==== 
     psi = 0.163*[#   2]+0.163*[#   3]+0.163*[#   4]+0.163*[#   6]+0.163*[#   7]
          +0.163*[#   8]+0.009*[#   1]+0.009*[#   5]
    |psi|^2 = 0.997
==== e(   4) =    11.17000 eV ==== 
     psi = 0.166*[#   2]+0.166*[#   3]+0.166*[#   4]+0.166*[#   6]+0.166*[#   7]
          +0.166*[#   8]
    |psi|^2 = 0.997
==== e(   5) =    21.26296 eV ==== 
     psi = 0.156*[#   2]+0.156*[#   3]+0.156*[#   4]+0.156*[#   6]+0.156*[#   7]
          +0.156*[#   8]
    |psi|^2 = 0.936
==== e(   6) =    21.78865 eV ==== 
     psi = 0.149*[#   2]+0.149*[#   3]+0.149*[#   4]+0.149*[#   6]+0.149*[#   7]
          +0.149*[#   8]+0.015*[#   1]+0.015*[#   5]
    |psi|^2 = 0.924
==== e(   7) =    21.92341 eV ==== 
     psi = 0.286*[#   1]+0.286*[#   5]+0.061*[#   2]+0.061*[#   3]+0.061*[#   4]
          +0.061*[#   6]+0.061*[#   7]+0.061*[#   8]
    |psi|^2 = 0.941
==== e(   8) =    28.18298 eV ==== 
     psi = 0.186*[#   1]+0.186*[#   5]+0.068*[#   2]+0.068*[#   3]+0.068*[#   4]
          +0.068*[#   6]+0.068*[#   7]+0.068*[#   8]
    |psi|^2 = 0.778

 k =   0.3000000000 -0.2000000000  0.3000000000
==== e(   1) =    -6.11822 eV ==== 
     psi = 0.316*[#   1]+0.316*[#   5]+0.060*[#   2]+0.060*[#   3]+0.060*[#   4]
          +0.060*[#   6]+0.060*[#   7]+0.060*[#   8]
    |psi|^2 = 0.993
==== e(   2) =     6.05640 eV ==== 
     psi = 0.128*[#   2]+0.128*[#   3]+0.128*[#   4]+0.128*[#   6]+0.128*[#   7]
          +0.128*[#   8]+0.114*[#   1]+0.114*[#   5]
    |psi|^2 = 0.993
==== e(   3) =    10.63523 eV ==== 
     psi = 0.163*[#   2]+0.163*[#   3]+0.163*[#   4]+0.163*[#   6]+0.163*[#   7]
          +0.163*[#   8]+0.010*[#   1]+0.010*[#   5]
    |psi|^2 = 0.997
==== e(   4) =    11.58074 eV ==== 
     psi = 0.166*[#   2]+0.166*[#   3]+0.166*[#   4]+0.166*[#   6]+0.166*[#   7]
          +0.166*[#   8]
    |psi|^2 = 0.997
==== e(   5) =    20.89118 eV ==== 
     psi = 0.159*[#   2]+0.159*[#   3]+0.159*[#   4]+0.159*[#   6]+0.159*[#   7]
          +0.159*[#   8]
    |psi|^2 = 0.954
==== e(   6) =    21.59611 eV ==== 
     psi = 0.142*[#   2]+0.142*[#   3]+0.142*[#   4]+0.142*[#   6]+0.142*[#   7]
          +0.142*[#   8]+0.047*[#   1]+0.047*[#   5]
    |psi|^2 = 0.943
==== e(   7) =    21.67170 eV ==== 
     psi = 0.204*[#   1]+0.204*[#   5]+0.091*[#   2]+0.091*[#   3]+0.091*[#   4]
          +0.091*[#   6]+0.091*[#   7]+0.091*[#   8]
    |psi|^2 = 0.952
==== e(   8) =    27.80255 eV ==== 
     psi = 0.247*[#   1]+0.247*[#   5]+0.057*[#   2]+0.057*[#   3]+0.057*[#   4]
          +0.057*[#   6]+0.057*[#   7]+0.057*[#   8]
    |psi|^2 = 0.838

 k =   0.2500000000 -0.1500000000  0.2500000000
==== e(   1) =    -6.76901 eV ==== 
     psi = 0.341*[#   1]+0.341*[#   5]+0.052*[#   2]+0.052*[#   3]+0.052*[#   4]
          +0.052*[#   6]+0.052*[#   7]+0.052*[#   8]
    |psi|^2 = 0.993
==== e(   2) =     7.75234 eV ==== 
     psi = 0.135*[#   2]+0.135*[#   3]+0.135*[#   4]+0.135*[#   6]+0.135*[#   7]
          +0.135*[#   8]+0.092*[#   1]+0.092*[#   5]
    |psi|^2 = 0.994
==== e(   3) =    11.00618 eV ==== 
     psi = 0.163*[#   2]+0.163*[#   3]+0.163*[#   4]+0.163*[#   6]+0.163*[#   7]
          +0.163*[#   8]+0.010*[#   1]+0.010*[#   5]
    |psi|^2 = 0.996
==== e(   4) =    12.02918 eV ==== 
     psi = 0.166*[#   2]+0.166*[#   3]+0.166*[#   4]+0.166*[#   6]+0.166*[#   7]
          +0.166*[#   8]
    |psi|^2 = 0.996
==== e(   5) =    20.39967 eV ==== 
     psi = 0.161*[#   2]+0.161*[#   3]+0.161*[#   4]+0.161*[#   6]+0.161*[#   7]
          +0.161*[#   8]
    |psi|^2 = 0.966
==== e(   6) =    21.17132 eV ==== 
     psi = 0.134*[#   2]+0.134*[#   3]+0.134*[#   4]+0.134*[#   6]+0.134*[#   7]
          +0.134*[#   8]+0.078*[#   1]+0.078*[#   5]
    |psi|^2 = 0.959
==== e(   7) =    21.36167 eV ==== 
     psi = 0.122*[#   2]+0.122*[#   3]+0.122*[#   4]+0.122*[#   6]+0.122*[#   7]
          +0.122*[#   8]+0.116*[#   1]+0.116*[#   5]
    |psi|^2 = 0.961
==== e(   8) =    27.43861 eV ==== 
     psi = 0.313*[#   1]+0.313*[#   5]+0.044*[#   2]+0.044*[#   3]+0.044*[#   4]
          +0.044*[#   6]+0.044*[#   7]+0.044*[#   8]
    |psi|^2 = 0.888

 k =   0.2000000000 -0.1000000000  0.2000000000
==== e(   1) =    -7.28929 eV ==== 
     psi = 0.376*[#   1]+0.376*[#   5]+0.040*[#   2]+0.040*[#   3]+0.040*[#   4]
          +0.040*[#   6]+0.040*[#   7]+0.040*[#   8]
    |psi|^2 = 0.993
==== e(   2) =     9.42780 eV ==== 
     psi = 0.144*[#   2]+0.144*[#   3]+0.144*[#   4]+0.144*[#   6]+0.144*[#   7]
          +0.144*[#   8]+0.065*[#   1]+0.065*[#   5]
    |psi|^2 = 0.994
==== e(   3) =    11.44151 eV ==== 
     psi = 0.162*[#   2]+0.162*[#   3]+0.162*[#   4]+0.162*[#   6]+0.162*[#   7]
          +0.162*[#   8]+0.010*[#   1]+0.010*[#   5]
    |psi|^2 = 0.995
==== e(   4) =    12.47384 eV ==== 
     psi = 0.166*[#   2]+0.166*[#   3]+0.166*[#   4]+0.166*[#   6]+0.166*[#   7]
          +0.166*[#   8]
    |psi|^2 = 0.995
==== e(   5) =    19.84566 eV ==== 
     psi = 0.162*[#   2]+0.162*[#   3]+0.162*[#   4]+0.162*[#   6]+0.162*[#   7]
          +0.162*[#   8]
    |psi|^2 = 0.973
==== e(   6) =    20.59634 eV ==== 
     psi = 0.140*[#   2]+0.140*[#   3]+0.140*[#   4]+0.140*[#   6]+0.140*[#   7]
          +0.140*[#   8]+0.063*[#   1]+0.063*[#   5]
    |psi|^2 = 0.968
==== e(   7) =    20.89925 eV ==== 
     psi = 0.138*[#   2]+0.138*[#   3]+0.138*[#   4]+0.138*[#   6]+0.138*[#   7]
          +0.138*[#   8]+0.071*[#   1]+0.071*[#   5]
    |psi|^2 = 0.968
==== e(   8) =    27.11111 eV ==== 
     psi = 0.376*[#   1]+0.376*[#   5]+0.029*[#   2]+0.029*[#   3]+0.029*[#   4]
          +0.029*[#   6]+0.029*[#   7]+0.029*[#   8]
    |psi|^2 = 0.926

 k =   0.1500000000 -0.0500000000  0.1500000000
==== e(   1) =    -7.67565 eV ==== 
     psi = 0.418*[#   1]+0.418*[#   5]+0.026*[#   2]+0.026*[#   3]+0.026*[#   4]
          +0.026*[#   6]+0.026*[#   7]+0.026*[#   8]
    |psi|^2 = 0.994
==== e(   2) =    10.99110 eV ==== 
     psi = 0.154*[#   2]+0.154*[#   3]+0.154*[#   4]+0.154*[#   6]+0.154*[#   7]
          +0.154*[#   8]+0.036*[#   1]+0.036*[#   5]
    |psi|^2 = 0.994
==== e(   3) =    11.92217 eV ==== 
     psi = 0.163*[#   2]+0.163*[#   3]+0.163*[#   4]+0.163*[#   6]+0.163*[#   7]
          +0.163*[#   8]+0.009*[#   1]+0.009*[#   5]
    |psi|^2 = 0.994
==== e(   4) =    12.84819 eV ==== 
     psi = 0.166*[#   2]+0.166*[#   3]+0.166*[#   4]+0.166*[#   6]+0.166*[#   7]
          +0.166*[#   8]
    |psi|^2 = 0.994
==== e(   5) =    19.33477 eV ==== 
     psi = 0.163*[#   2]+0.163*[#   3]+0.163*[#   4]+0.163*[#   6]+0.163*[#   7]
          +0.163*[#   8]
    |psi|^2 = 0.976
==== e(   6) =    19.95612 eV ==== 
     psi = 0.145*[#   2]+0.145*[#   3]+0.145*[#   4]+0.145*[#   6]+0.145*[#   7]
          +0.145*[#   8]+0.052*[#   1]+0.052*[#   5]
    |psi|^2 = 0.974
==== e(   7) =    20.29375 eV ==== 
     psi = 0.153*[#   2]+0.153*[#   3]+0.153*[#   4]+0.153*[#   6]+0.153*[#   7]
          +0.153*[#   8]+0.029*[#   1]+0.029*[#   5]
    |psi|^2 = 0.973
==== e(   8) =    26.84547 eV ==== 
     psi = 0.427*[#   1]+0.427*[#   5]+0.016*[#   2]+0.016*[#   3]+0.016*[#   4]
          +0.016*[#   6]+0.016*[#   7]+0.016*[#   8]
    |psi|^2 = 0.950

 k =   0.1000000000 -0.0000000000  0.1000000000
==== e(   1) =    -7.92659 eV ==== 
     psi = 0.458*[#   1]+0.458*[#   5]+0.013*[#   2]+0.013*[#   3]+0.013*[#   4]
          +0.013*[#   6]+0.013*[#   7]+0.013*[#   8]
    |psi|^2 = 0.994
==== e(   2) =    12.21658 eV ==== 
     psi = 0.160*[#   2]+0.160*[#   3]+0.160*[#   4]+0.160*[#   6]+0.160*[#   7]
          +0.160*[#   8]+0.015*[#   1]+0.015*[#   5]
    |psi|^2 = 0.994
==== e(   3) =    12.45220 eV ==== 
     psi = 0.164*[#   2]+0.164*[#   3]+0.164*[#   4]+0.164*[#   6]+0.164*[#   7]
          +0.164*[#   8]+0.005*[#   1]+0.005*[#   5]
    |psi|^2 = 0.994
==== e(   4) =    13.07348 eV ==== 
     psi = 0.166*[#   2]+0.166*[#   3]+0.166*[#   4]+0.166*[#   6]+0.166*[#   7]
          +0.166*[#   8]
    |psi|^2 = 0.993
==== e(   5) =    19.00799 eV ==== 
     psi = 0.163*[#   2]+0.163*[#   3]+0.163*[#   4]+0.163*[#   6]+0.163*[#   7]
          +0.163*[#   8]
    |psi|^2 = 0.978
==== e(   6) =    19.37467 eV ==== 
     psi = 0.151*[#   2]+0.151*[#   3]+0.151*[#   4]+0.151*[#   6]+0.151*[#   7]
          +0.151*[#   8]+0.034*[#   1]+0.034*[#   5]
    |psi|^2 = 0.976
==== e(   7) =    19.61642 eV ==== 
     psi = 0.161*[#   2]+0.161*[#   3]+0.161*[#   4]+0.161*[#   6]+0.161*[#   7]
          +0.161*[#   8]+0.004*[#   1]+0.004*[#   5]
    |psi|^2 = 0.976
==== e(   8) =    26.66178 eV ==== 
     psi = 0.461*[#   1]+0.461*[#   5]+0.007*[#   2]+0.007*[#   3]+0.007*[#   4]
          +0.007*[#   6]+0.007*[#   7]+0.007*[#   8]
    |psi|^2 = 0.963

 k =   0.0000000000  0.2000000000  0.0000000000
==== e(   1) =    -7.74418 eV ==== 
     psi = 0.427*[#   1]+0.427*[#   5]+0.023*[#   2]+0.023*[#   3]+0.023*[#   4]
          +0.023*[#   6]+0.023*[#   7]+0.023*[#   8]
    |psi|^2 = 0.994
==== e(   2) =    11.94299 eV ==== 
     psi = 0.166*[#   2]+0.166*[#   3]+0.166*[#   4]+0.166*[#   6]+0.166*[#   7]
          +0.166*[#   8]
    |psi|^2 = 0.995
==== e(   3) =    11.94299 eV ==== 
     psi = 0.166*[#   2]+0.166*[#   3]+0.166*[#   4]+0.166*[#   6]+0.166*[#   7]
          +0.166*[#   8]
    |psi|^2 = 0.995
==== e(   4) =    12.34356 eV ==== 
     psi = 0.155*[#   2]+0.155*[#   3]+0.155*[#   4]+0.155*[#   6]+0.155*[#   7]
          +0.155*[#   8]+0.033*[#   1]+0.033*[#   5]
    |psi|^2 = 0.994
==== e(   5) =    18.52074 eV ==== 
     psi = 0.140*[#   2]+0.140*[#   3]+0.140*[#   4]+0.140*[#   6]+0.140*[#   7]
          +0.140*[#   8]+0.069*[#   1]+0.069*[#   5]
    |psi|^2 = 0.977
==== e(   6) =    20.39211 eV ==== 
     psi = 0.162*[#   2]+0.162*[#   3]+0.162*[#   4]+0.162*[#   6]+0.162*[#   7]
          +0.162*[#   8]
    |psi|^2 = 0.974
==== e(   7) =    20.39211 eV ==== 
     psi = 0.162*[#   2]+0.162*[#   3]+0.162*[#   4]+0.162*[#   6]+0.162*[#   7]
          +0.162*[#   8]
    |psi|^2 = 0.974
==== e(   8) =    26.62348 eV ==== 
     psi = 0.435*[#   1]+0.435*[#   5]+0.011*[#   2]+0.011*[#   3]+0.011*[#   4]
          +0.011*[#   6]+0.011*[#   7]+0.011*[#   8]
    |psi|^2 = 0.937

 k =  -0.0500000000  0.2500000000 -0.0500000000
==== e(   1) =    -7.49365 eV ==== 
     psi = 0.395*[#   1]+0.395*[#   5]+0.034*[#   2]+0.034*[#   3]+0.034*[#   4]
          +0.034*[#   6]+0.034*[#   7]+0.034*[#   8]
    |psi|^2 = 0.994
==== e(   2) =    10.89338 eV ==== 
     psi = 0.157*[#   2]+0.157*[#   3]+0.157*[#   4]+0.157*[#   6]+0.157*[#   7]
          +0.157*[#   8]+0.028*[#   1]+0.028*[#   5]
    |psi|^2 = 0.995
==== e(   3) =    11.44421 eV ==== 
     psi = 0.166*[#   2]+0.166*[#   3]+0.166*[#   4]+0.166*[#   6]+0.166*[#   7]
          +0.166*[#   8]
    |psi|^2 = 0.996
==== e(   4) =    12.14869 eV ==== 
     psi = 0.157*[#   2]+0.157*[#   3]+0.157*[#   4]+0.157*[#   6]+0.157*[#   7]
          +0.157*[#   8]+0.027*[#   1]+0.027*[#   5]
    |psi|^2 = 0.995
==== e(   5) =    18.57556 eV ==== 
     psi = 0.135*[#   2]+0.135*[#   3]+0.135*[#   4]+0.135*[#   6]+0.135*[#   7]
          +0.135*[#   8]+0.085*[#   1]+0.085*[#   5]
    |psi|^2 = 0.976
==== e(   6) =    21.07515 eV ==== 
     psi = 0.162*[#   2]+0.162*[#   3]+0.162*[#   4]+0.162*[#   6]+0.162*[#   7]
          +0.162*[#   8]
    |psi|^2 = 0.971
==== e(   7) =    21.07821 eV ==== 
     psi = 0.156*[#   2]+0.156*[#   3]+0.156*[#   4]+0.156*[#   6]+0.156*[#   7]
          +0.156*[#   8]+0.016*[#   1]+0.016*[#   5]
    |psi|^2 = 0.971
==== e(   8) =    26.57250 eV ==== 
     psi = 0.395*[#   1]+0.395*[#   5]+0.018*[#   2]+0.018*[#   3]+0.018*[#   4]
          +0.018*[#   6]+0.018*[#   7]+0.018*[#   8]
    |psi|^2 = 0.896

 k =  -0.1000000000  0.3000000000 -0.1000000000
==== e(   1) =    -7.10761 eV ==== 
     psi = 0.360*[#   1]+0.360*[#   5]+0.046*[#   2]+0.046*[#   3]+0.046*[#   4]
          +0.046*[#   6]+0.046*[#   7]+0.046*[#   8]
    |psi|^2 = 0.993
==== e(   2) =     9.41684 eV ==== 
     psi = 0.147*[#   2]+0.147*[#   3]+0.147*[#   4]+0.147*[#   6]+0.147*[#   7]
          +0.147*[#   8]+0.058*[#   1]+0.058*[#   5]
    |psi|^2 = 0.995
==== e(   3) =    10.96953 eV ==== 
     psi = 0.166*[#   2]+0.166*[#   3]+0.166*[#   4]+0.166*[#   6]+0.166*[#   7]
          +0.166*[#   8]
    |psi|^2 = 0.996
==== e(   4) =    11.85891 eV ==== 
     psi = 0.157*[#   2]+0.157*[#   3]+0.157*[#   4]+0.157*[#   6]+0.157*[#   7]
          +0.157*[#   8]+0.028*[#   1]+0.028*[#   5]
    |psi|^2 = 0.995
==== e(   5) =    18.94334 eV ==== 
     psi = 0.134*[#   2]+0.134*[#   3]+0.134*[#   4]+0.134*[#   6]+0.134*[#   7]
          +0.134*[#   8]+0.084*[#   1]+0.084*[#   5]
    |psi|^2 = 0.973
==== e(   6) =    21.70273 eV ==== 
     psi = 0.142*[#   2]+0.142*[#   3]+0.142*[#   4]+0.142*[#   6]+0.142*[#   7]
          +0.142*[#   8]+0.058*[#   1]+0.058*[#   5]
    |psi|^2 = 0.967
==== e(   7) =    21.73954 eV ==== 
     psi = 0.161*[#   2]+0.161*[#   3]+0.161*[#   4]+0.161*[#   6]+0.161*[#   7]
          +0.161*[#   8]
    |psi|^2 = 0.966
==== e(   8) =    26.53686 eV ==== 
     psi = 0.336*[#   1]+0.336*[#   5]+0.027*[#   2]+0.027*[#   3]+0.027*[#   4]
          +0.027*[#   6]+0.027*[#   7]+0.027*[#   8]
    |psi|^2 = 0.836

 k =  -0.1500000000  0.3500000000 -0.1500000000
==== e(   1) =    -6.58836 eV ==== 
     psi = 0.330*[#   1]+0.330*[#   5]+0.055*[#   2]+0.055*[#   3]+0.055*[#   4]
          +0.055*[#   6]+0.055*[#   7]+0.055*[#   8]
    |psi|^2 = 0.993
==== e(   2) =     7.80052 eV ==== 
     psi = 0.137*[#   2]+0.137*[#   3]+0.137*[#   4]+0.137*[#   6]+0.137*[#   7]
          +0.137*[#   8]+0.085*[#   1]+0.085*[#   5]
    |psi|^2 = 0.995
==== e(   3) =    10.55178 eV ==== 
     psi = 0.166*[#   2]+0.166*[#   3]+0.166*[#   4]+0.166*[#   6]+0.166*[#   7]
          +0.166*[#   8]
    |psi|^2 = 0.997
==== e(   4) =    11.44595 eV ==== 
     psi = 0.156*[#   2]+0.156*[#   3]+0.156*[#   4]+0.156*[#   6]+0.156*[#   7]
          +0.156*[#   8]+0.030*[#   1]+0.030*[#   5]
    |psi|^2 = 0.996
==== e(   5) =    19.46596 eV ==== 
     psi = 0.135*[#   2]+0.135*[#   3]+0.135*[#   4]+0.135*[#   6]+0.135*[#   7]
          +0.135*[#   8]+0.079*[#   1]+0.079*[#   5]
    |psi|^2 = 0.965
==== e(   6) =    22.18775 eV ==== 
     psi = 0.123*[#   2]+0.123*[#   3]+0.123*[#   4]+0.123*[#   6]+0.123*[#   7]
          +0.123*[#   8]+0.112*[#   1]+0.112*[#   5]
    |psi|^2 = 0.960
==== e(   7) =    22.29099 eV ==== 
     psi = 0.160*[#   2]+0.160*[#   3]+0.160*[#   4]+0.160*[#   6]+0.160*[#   7]
          +0.160*[#   8]
    |psi|^2 = 0.958
==== e(   8) =    26.56240 eV ==== 
     psi = 0.273*[#   1]+0.273*[#   5]+0.037*[#   2]+0.037*[#   3]+0.037*[#   4]
          +0.037*[#   6]+0.037*[#   7]+0.037*[#   8]
    |psi|^2 = 0.771

 k =  -0.2000000000  0.4000000000 -0.2000000000
==== e(   1) =    -5.93868 eV ==== 
     psi = 0.308*[#   1]+0.308*[#   5]+0.063*[#   2]+0.063*[#   3]+0.063*[#   4]
          +0.063*[#   6]+0.063*[#   7]+0.063*[#   8]
    |psi|^2 = 0.993
==== e(   2) =     6.14511 eV ==== 
     psi = 0.130*[#   2]+0.130*[#   3]+0.130*[#   4]+0.130*[#   6]+0.130*[#   7]
          +0.130*[#   8]+0.108*[#   1]+0.108*[#   5]
    |psi|^2 = 0.994
==== e(   3) =    10.21529 eV ==== 
     psi = 0.166*[#   2]+0.166*[#   3]+0.166*[#   4]+0.166*[#   6]+0.166*[#   7]
          +0.166*[#   8]
    |psi|^2 = 0.997
==== e(   4) =    10.98245 eV ==== 
     psi = 0.156*[#   2]+0.156*[#   3]+0.156*[#   4]+0.156*[#   6]+0.156*[#   7]
          +0.156*[#   8]+0.030*[#   1]+0.030*[#   5]
    |psi|^2 = 0.997
==== e(   5) =    19.98241 eV ==== 
     psi = 0.133*[#   2]+0.133*[#   3]+0.133*[#   4]+0.133*[#   6]+0.133*[#   7]
          +0.133*[#   8]+0.074*[#   1]+0.074*[#   5]
    |psi|^2 = 0.949
==== e(   6) =    22.53175 eV ==== 
     psi = 0.167*[#   1]+0.167*[#   5]+0.103*[#   2]+0.103*[#   3]+0.103*[#   4]
          +0.103*[#   6]+0.103*[#   7]+0.103*[#   8]
    |psi|^2 = 0.951
==== e(   7) =    22.66491 eV ==== 
     psi = 0.157*[#   2]+0.157*[#   3]+0.157*[#   4]+0.157*[#   6]+0.157*[#   7]
          +0.157*[#   8]
    |psi|^2 = 0.944
==== e(   8) =    26.73257 eV ==== 
     psi = 0.219*[#   1]+0.219*[#   5]+0.047*[#   2]+0.047*[#   3]+0.047*[#   4]
          +0.047*[#   6]+0.047*[#   7]+0.047*[#   8]
    |psi|^2 = 0.721

 k =  -0.2500000000  0.4500000000 -0.2500000000
==== e(   1) =    -5.16352 eV ==== 
     psi = 0.293*[#   1]+0.293*[#   5]+0.068*[#   2]+0.068*[#   3]+0.068*[#   4]
          +0.068*[#   6]+0.068*[#   7]+0.068*[#   8]
    |psi|^2 = 0.993
==== e(   2) =     4.51503 eV ==== 
     psi = 0.124*[#   2]+0.124*[#   3]+0.124*[#   4]+0.124*[#   6]+0.124*[#   7]
          +0.124*[#   8]+0.124*[#   1]+0.124*[#   5]
    |psi|^2 = 0.994
==== e(   3) =     9.97469 eV ==== 
     psi = 0.166*[#   2]+0.166*[#   3]+0.166*[#   4]+0.166*[#   6]+0.166*[#   7]
          +0.166*[#   8]
    |psi|^2 = 0.998
==== e(   4) =    10.52531 eV ==== 
     psi = 0.156*[#   2]+0.156*[#   3]+0.156*[#   4]+0.156*[#   6]+0.156*[#   7]
          +0.156*[#   8]+0.030*[#   1]+0.030*[#   5]
    |psi|^2 = 0.997
==== e(   5) =    20.39392 eV ==== 
     psi = 0.130*[#   2]+0.130*[#   3]+0.130*[#   4]+0.130*[#   6]+0.130*[#   7]
          +0.130*[#   8]+0.072*[#   1]+0.072*[#   5]
    |psi|^2 = 0.926
==== e(   6) =    22.76319 eV ==== 
     psi = 0.215*[#   1]+0.215*[#   5]+0.085*[#   2]+0.085*[#   3]+0.085*[#   4]
          +0.085*[#   6]+0.085*[#   7]+0.085*[#   8]
    |psi|^2 = 0.939
==== e(   7) =    22.84622 eV ==== 
     psi = 0.154*[#   2]+0.154*[#   3]+0.154*[#   4]+0.154*[#   6]+0.154*[#   7]
          +0.154*[#   8]
    |psi|^2 = 0.927
==== e(   8) =    27.11278 eV ==== 
     psi = 0.175*[#   1]+0.175*[#   5]+0.057*[#   2]+0.057*[#   3]+0.057*[#   4]
          +0.057*[#   6]+0.057*[#   7]+0.057*[#   8]
    |psi|^2 = 0.693

 k =  -0.3000000000  0.5000000000 -0.3000000000
==== e(   1) =    -4.27416 eV ==== 
     psi = 0.287*[#   1]+0.287*[#   5]+0.070*[#   2]+0.070*[#   3]+0.070*[#   4]
          +0.070*[#   6]+0.070*[#   7]+0.070*[#   8]
    |psi|^2 = 0.993
==== e(   2) =     2.95422 eV ==== 
     psi = 0.132*[#   1]+0.132*[#   5]+0.122*[#   2]+0.122*[#   3]+0.122*[#   4]
          +0.122*[#   6]+0.122*[#   7]+0.122*[#   8]
    |psi|^2 = 0.993
==== e(   3) =     9.83645 eV ==== 
     psi = 0.166*[#   2]+0.166*[#   3]+0.166*[#   4]+0.166*[#   6]+0.166*[#   7]
          +0.166*[#   8]
    |psi|^2 = 0.998
==== e(   4) =    10.10580 eV ==== 
     psi = 0.157*[#   2]+0.157*[#   3]+0.157*[#   4]+0.157*[#   6]+0.157*[#   7]
          +0.157*[#   8]+0.029*[#   1]+0.029*[#   5]
    |psi|^2 = 0.998
==== e(   5) =    20.67960 eV ==== 
     psi = 0.127*[#   2]+0.127*[#   3]+0.127*[#   4]+0.127*[#   6]+0.127*[#   7]
          +0.127*[#   8]+0.069*[#   1]+0.069*[#   5]
    |psi|^2 = 0.900
==== e(   6) =    22.86126 eV ==== 
     psi = 0.152*[#   2]+0.152*[#   3]+0.152*[#   4]+0.152*[#   6]+0.152*[#   7]
          +0.152*[#   8]
    |psi|^2 = 0.910
==== e(   7) =    22.90678 eV ==== 
     psi = 0.257*[#   1]+0.257*[#   5]+0.069*[#   2]+0.069*[#   3]+0.069*[#   4]
          +0.069*[#   6]+0.069*[#   7]+0.069*[#   8]
    |psi|^2 = 0.927
==== e(   8) =    27.66829 eV ==== 
     psi = 0.141*[#   1]+0.141*[#   5]+0.066*[#   2]+0.066*[#   3]+0.066*[#   4]
          +0.066*[#   6]+0.066*[#   7]+0.066*[#   8]
    |psi|^2 = 0.679

 k =  -0.3500000000  0.5500000000 -0.3500000000
==== e(   1) =    -3.30021 eV ==== 
     psi = 0.294*[#   1]+0.294*[#   5]+0.068*[#   2]+0.068*[#   3]+0.068*[#   4]
          +0.068*[#   6]+0.068*[#   7]+0.068*[#   8]
    |psi|^2 = 0.994
==== e(   2) =     1.50823 eV ==== 
     psi = 0.127*[#   1]+0.127*[#   5]+0.123*[#   2]+0.123*[#   3]+0.123*[#   4]
          +0.123*[#   6]+0.123*[#   7]+0.123*[#   8]
    |psi|^2 = 0.992
==== e(   3) =     9.74761 eV ==== 
     psi = 0.157*[#   2]+0.157*[#   3]+0.157*[#   4]+0.157*[#   6]+0.157*[#   7]
          +0.157*[#   8]+0.028*[#   1]+0.028*[#   5]
    |psi|^2 = 0.998
==== e(   4) =     9.80089 eV ==== 
     psi = 0.166*[#   2]+0.166*[#   3]+0.166*[#   4]+0.166*[#   6]+0.166*[#   7]
          +0.166*[#   8]
    |psi|^2 = 0.998
==== e(   5) =    20.88555 eV ==== 
     psi = 0.125*[#   2]+0.125*[#   3]+0.125*[#   4]+0.125*[#   6]+0.125*[#   7]
          +0.125*[#   8]+0.065*[#   1]+0.065*[#   5]
    |psi|^2 = 0.878
==== e(   6) =    22.75977 eV ==== 
     psi = 0.150*[#   2]+0.150*[#   3]+0.150*[#   4]+0.150*[#   6]+0.150*[#   7]
          +0.150*[#   8]
    |psi|^2 = 0.898
==== e(   7) =    22.98691 eV ==== 
     psi = 0.289*[#   1]+0.289*[#   5]+0.056*[#   2]+0.056*[#   3]+0.056*[#   4]
          +0.056*[#   6]+0.056*[#   7]+0.056*[#   8]
    |psi|^2 = 0.916
==== e(   8) =    28.26133 eV ==== 
     psi = 0.114*[#   1]+0.114*[#   5]+0.074*[#   2]+0.074*[#   3]+0.074*[#   4]
          +0.074*[#   6]+0.074*[#   7]+0.074*[#   8]
    |psi|^2 = 0.669

 k =   0.6000000000 -0.4000000000  0.6000000000
==== e(   1) =    -2.36595 eV ==== 
     psi = 0.330*[#   1]+0.330*[#   5]+0.056*[#   2]+0.056*[#   3]+0.056*[#   4]
          +0.056*[#   6]+0.056*[#   7]+0.056*[#   8]
    |psi|^2 = 0.997
==== e(   2) =     0.31720 eV ==== 
     psi = 0.134*[#   2]+0.134*[#   3]+0.134*[#   4]+0.134*[#   6]+0.134*[#   7]
          +0.134*[#   8]+0.092*[#   1]+0.092*[#   5]
    |psi|^2 = 0.989
==== e(   3) =     9.46516 eV ==== 
     psi = 0.157*[#   2]+0.157*[#   3]+0.157*[#   4]+0.157*[#   6]+0.157*[#   7]
          +0.157*[#   8]+0.028*[#   1]+0.028*[#   5]
    |psi|^2 = 0.998
==== e(   4) =     9.86792 eV ==== 
     psi = 0.166*[#   2]+0.166*[#   3]+0.166*[#   4]+0.166*[#   6]+0.166*[#   7]
          +0.166*[#   8]
    |psi|^2 = 0.998
==== e(   5) =    21.06978 eV ==== 
     psi = 0.124*[#   2]+0.124*[#   3]+0.124*[#   4]+0.124*[#   6]+0.124*[#   7]
          +0.124*[#   8]+0.060*[#   1]+0.060*[#   5]
    |psi|^2 = 0.865
==== e(   6) =    22.59479 eV ==== 
     psi = 0.149*[#   2]+0.149*[#   3]+0.149*[#   4]+0.149*[#   6]+0.149*[#   7]
          +0.149*[#   8]
    |psi|^2 = 0.893
==== e(   7) =    23.01860 eV ==== 
     psi = 0.308*[#   1]+0.308*[#   5]+0.049*[#   2]+0.049*[#   3]+0.049*[#   4]
          +0.049*[#   6]+0.049*[#   7]+0.049*[#   8]
    |psi|^2 = 0.908
==== e(   8) =    28.72383 eV ==== 
     psi = 0.097*[#   1]+0.097*[#   5]+0.078*[#   2]+0.078*[#   3]+0.078*[#   4]
          +0.078*[#   6]+0.078*[#   7]+0.078*[#   8]
    |psi|^2 = 0.662

 k =   0.5500000000 -0.3500000000  0.5500000000
==== e(   1) =    -2.15216 eV ==== 
     psi = 0.350*[#   1]+0.350*[#   5]+0.050*[#   2]+0.050*[#   3]+0.050*[#   4]
          +0.050*[#   6]+0.050*[#   7]+0.050*[#   8]
    |psi|^2 = 0.998
==== e(   2) =     0.06848 eV ==== 
     psi = 0.141*[#   2]+0.141*[#   3]+0.141*[#   4]+0.141*[#   6]+0.141*[#   7]
          +0.141*[#   8]+0.072*[#   1]+0.072*[#   5]
    |psi|^2 = 0.988
==== e(   3) =     9.26744 eV ==== 
     psi = 0.157*[#   2]+0.157*[#   3]+0.157*[#   4]+0.157*[#   6]+0.157*[#   7]
          +0.157*[#   8]+0.028*[#   1]+0.028*[#   5]
    |psi|^2 = 0.998
==== e(   4) =    10.03166 eV ==== 
     psi = 0.166*[#   2]+0.166*[#   3]+0.166*[#   4]+0.166*[#   6]+0.166*[#   7]
          +0.166*[#   8]
    |psi|^2 = 0.998
==== e(   5) =    21.26528 eV ==== 
     psi = 0.124*[#   2]+0.124*[#   3]+0.124*[#   4]+0.124*[#   6]+0.124*[#   7]
          +0.124*[#   8]+0.057*[#   1]+0.057*[#   5]
    |psi|^2 = 0.861
==== e(   6) =    22.39723 eV ==== 
     psi = 0.149*[#   2]+0.149*[#   3]+0.149*[#   4]+0.149*[#   6]+0.149*[#   7]
          +0.149*[#   8]
    |psi|^2 = 0.895
==== e(   7) =    23.00763 eV ==== 
     psi = 0.313*[#   1]+0.313*[#   5]+0.046*[#   2]+0.046*[#   3]+0.046*[#   4]
          +0.046*[#   6]+0.046*[#   7]+0.046*[#   8]
    |psi|^2 = 0.904
==== e(   8) =    28.92129 eV ==== 
     psi = 0.094*[#   1]+0.094*[#   5]+0.080*[#   2]+0.080*[#   3]+0.080*[#   4]
          +0.080*[#   6]+0.080*[#   7]+0.080*[#   8]
    |psi|^2 = 0.668

 k =   0.5000000000 -0.3000000000  0.5000000000
==== e(   1) =    -2.97219 eV ==== 
     psi = 0.301*[#   1]+0.301*[#   5]+0.065*[#   2]+0.065*[#   3]+0.065*[#   4]
          +0.065*[#   6]+0.065*[#   7]+0.065*[#   8]
    |psi|^2 = 0.995
==== e(   2) =     1.07374 eV ==== 
     psi = 0.125*[#   2]+0.125*[#   3]+0.125*[#   4]+0.125*[#   6]+0.125*[#   7]
          +0.125*[#   8]+0.120*[#   1]+0.120*[#   5]
    |psi|^2 = 0.991
==== e(   3) =     9.16452 eV ==== 
     psi = 0.157*[#   2]+0.157*[#   3]+0.157*[#   4]+0.157*[#   6]+0.157*[#   7]
          +0.157*[#   8]+0.028*[#   1]+0.028*[#   5]
    |psi|^2 = 0.998
==== e(   4) =    10.28362 eV ==== 
     psi = 0.166*[#   2]+0.166*[#   3]+0.166*[#   4]+0.166*[#   6]+0.166*[#   7]
          +0.166*[#   8]
    |psi|^2 = 0.998
==== e(   5) =    21.47742 eV ==== 
     psi = 0.125*[#   2]+0.125*[#   3]+0.125*[#   4]+0.125*[#   6]+0.125*[#   7]
          +0.125*[#   8]+0.057*[#   1]+0.057*[#   5]
    |psi|^2 = 0.867
==== e(   6) =    22.17327 eV ==== 
     psi = 0.151*[#   2]+0.151*[#   3]+0.151*[#   4]+0.151*[#   6]+0.151*[#   7]
          +0.151*[#   8]
    |psi|^2 = 0.904
==== e(   7) =    22.95240 eV ==== 
     psi = 0.302*[#   1]+0.302*[#   5]+0.050*[#   2]+0.050*[#   3]+0.050*[#   4]
          +0.050*[#   6]+0.050*[#   7]+0.050*[#   8]
    |psi|^2 = 0.905
==== e(   8) =    28.80976 eV ==== 
     psi = 0.109*[#   1]+0.109*[#   5]+0.080*[#   2]+0.080*[#   3]+0.080*[#   4]
          +0.080*[#   6]+0.080*[#   7]+0.080*[#   8]
    |psi|^2 = 0.695

 k =   0.4500000000 -0.2500000000  0.4500000000
==== e(   1) =    -3.95758 eV ==== 
     psi = 0.288*[#   1]+0.288*[#   5]+0.070*[#   2]+0.070*[#   3]+0.070*[#   4]
          +0.070*[#   6]+0.070*[#   7]+0.070*[#   8]
    |psi|^2 = 0.994
==== e(   2) =     2.46363 eV ==== 
     psi = 0.132*[#   1]+0.132*[#   5]+0.122*[#   2]+0.122*[#   3]+0.122*[#   4]
          +0.122*[#   6]+0.122*[#   7]+0.122*[#   8]
    |psi|^2 = 0.993
==== e(   3) =     9.16145 eV ==== 
     psi = 0.157*[#   2]+0.157*[#   3]+0.157*[#   4]+0.157*[#   6]+0.157*[#   7]
          +0.157*[#   8]+0.029*[#   1]+0.029*[#   5]
    |psi|^2 = 0.998
==== e(   4) =    10.62016 eV ==== 
     psi = 0.166*[#   2]+0.166*[#   3]+0.166*[#   4]+0.166*[#   6]+0.166*[#   7]
          +0.166*[#   8]
    |psi|^2 = 0.998
==== e(   5) =    21.68409 eV ==== 
     psi = 0.126*[#   2]+0.126*[#   3]+0.126*[#   4]+0.126*[#   6]+0.126*[#   7]
          +0.126*[#   8]+0.062*[#   1]+0.062*[#   5]
    |psi|^2 = 0.882
==== e(   6) =    21.90781 eV ==== 
     psi = 0.153*[#   2]+0.153*[#   3]+0.153*[#   4]+0.153*[#   6]+0.153*[#   7]
          +0.153*[#   8]
    |psi|^2 = 0.919
==== e(   7) =    22.84622 eV ==== 
     psi = 0.272*[#   1]+0.272*[#   5]+0.061*[#   2]+0.061*[#   3]+0.061*[#   4]
          +0.061*[#   6]+0.061*[#   7]+0.061*[#   8]
    |psi|^2 = 0.910
==== e(   8) =    28.44267 eV ==== 
     psi = 0.140*[#   1]+0.140*[#   5]+0.075*[#   2]+0.075*[#   3]+0.075*[#   4]
          +0.075*[#   6]+0.075*[#   7]+0.075*[#   8]
    |psi|^2 = 0.732

 k =   0.4000000000 -0.2000000000  0.4000000000
==== e(   1) =    -4.87972 eV ==== 
     psi = 0.291*[#   1]+0.291*[#   5]+0.069*[#   2]+0.069*[#   3]+0.069*[#   4]
          +0.069*[#   6]+0.069*[#   7]+0.069*[#   8]
    |psi|^2 = 0.993
==== e(   2) =     3.99544 eV ==== 
     psi = 0.127*[#   1]+0.127*[#   5]+0.123*[#   2]+0.123*[#   3]+0.123*[#   4]
          +0.123*[#   6]+0.123*[#   7]+0.123*[#   8]
    |psi|^2 = 0.994
==== e(   3) =     9.26318 eV ==== 
     psi = 0.156*[#   2]+0.156*[#   3]+0.156*[#   4]+0.156*[#   6]+0.156*[#   7]
          +0.156*[#   8]+0.030*[#   1]+0.030*[#   5]
    |psi|^2 = 0.997
==== e(   4) =    11.02416 eV ==== 
     psi = 0.166*[#   2]+0.166*[#   3]+0.166*[#   4]+0.166*[#   6]+0.166*[#   7]
          +0.166*[#   8]
    |psi|^2 = 0.998
==== e(   5) =    21.56962 eV ==== 
     psi = 0.156*[#   2]+0.156*[#   3]+0.156*[#   4]+0.156*[#   6]+0.156*[#   7]
          +0.156*[#   8]
    |psi|^2 = 0.937
==== e(   6) =    21.83943 eV ==== 
     psi = 0.127*[#   2]+0.127*[#   3]+0.127*[#   4]+0.127*[#   6]+0.127*[#   7]
          +0.127*[#   8]+0.071*[#   1]+0.071*[#   5]
    |psi|^2 = 0.904
==== e(   7) =    22.66564 eV ==== 
     psi = 0.225*[#   1]+0.225*[#   5]+0.078*[#   2]+0.078*[#   3]+0.078*[#   4]
          +0.078*[#   6]+0.078*[#   7]+0.078*[#   8]
    |psi|^2 = 0.920
==== e(   8) =    27.95832 eV ==== 
     psi = 0.184*[#   1]+0.184*[#   5]+0.067*[#   2]+0.067*[#   3]+0.067*[#   4]
          +0.067*[#   6]+0.067*[#   7]+0.067*[#   8]
    |psi|^2 = 0.769

 k =   0.3500000000 -0.1500000000  0.3500000000
==== e(   1) =    -5.69437 eV ==== 
     psi = 0.303*[#   1]+0.303*[#   5]+0.065*[#   2]+0.065*[#   3]+0.065*[#   4]
          +0.065*[#   6]+0.065*[#   7]+0.065*[#   8]
    |psi|^2 = 0.993
==== e(   2) =     5.61137 eV ==== 
     psi = 0.128*[#   2]+0.128*[#   3]+0.128*[#   4]+0.128*[#   6]+0.128*[#   7]
          +0.128*[#   8]+0.113*[#   1]+0.113*[#   5]
    |psi|^2 = 0.994
==== e(   3) =     9.46684 eV ==== 
     psi = 0.155*[#   2]+0.155*[#   3]+0.155*[#   4]+0.155*[#   6]+0.155*[#   7]
          +0.155*[#   8]+0.032*[#   1]+0.032*[#   5]
    |psi|^2 = 0.997
==== e(   4) =    11.47648 eV ==== 
     psi = 0.166*[#   2]+0.166*[#   3]+0.166*[#   4]+0.166*[#   6]+0.166*[#   7]
          +0.166*[#   8]
    |psi|^2 = 0.997
==== e(   5) =    21.13056 eV ==== 
     psi = 0.159*[#   2]+0.159*[#   3]+0.159*[#   4]+0.159*[#   6]+0.159*[#   7]
          +0.159*[#   8]
    |psi|^2 = 0.954
==== e(   6) =    21.87602 eV ==== 
     psi = 0.129*[#   2]+0.129*[#   3]+0.129*[#   4]+0.129*[#   6]+0.129*[#   7]
          +0.129*[#   8]+0.079*[#   1]+0.079*[#   5]
    |psi|^2 = 0.929
==== e(   7) =    22.36475 eV ==== 
     psi = 0.171*[#   1]+0.171*[#   5]+0.099*[#   2]+0.099*[#   3]+0.099*[#   4]
          +0.099*[#   6]+0.099*[#   7]+0.099*[#   8]
    |psi|^2 = 0.934
==== e(   8) =    27.51386 eV ==== 
     psi = 0.235*[#   1]+0.235*[#   5]+0.055*[#   2]+0.055*[#   3]+0.055*[#   4]
          +0.055*[#   6]+0.055*[#   7]+0.055*[#   8]
    |psi|^2 = 0.803

 k =   0.3000000000 -0.1000000000  0.3000000000
==== e(   1) =    -6.38653 eV ==== 
     psi = 0.323*[#   1]+0.323*[#   5]+0.058*[#   2]+0.058*[#   3]+0.058*[#   4]
          +0.058*[#   6]+0.058*[#   7]+0.058*[#   8]
    |psi|^2 = 0.993
==== e(   2) =     7.26273 eV ==== 
     psi = 0.135*[#   2]+0.135*[#   3]+0.135*[#   4]+0.135*[#   6]+0.135*[#   7]
          +0.135*[#   8]+0.093*[#   1]+0.093*[#   5]
    |psi|^2 = 0.995
==== e(   3) =     9.77233 eV ==== 
     psi = 0.155*[#   2]+0.155*[#   3]+0.155*[#   4]+0.155*[#   6]+0.155*[#   7]
          +0.155*[#   8]+0.034*[#   1]+0.034*[#   5]
    |psi|^2 = 0.996
==== e(   4) =    11.94571 eV ==== 
     psi = 0.166*[#   2]+0.166*[#   3]+0.166*[#   4]+0.166*[#   6]+0.166*[#   7]
          +0.166*[#   8]
    |psi|^2 = 0.997
==== e(   5) =    20.59461 eV ==== 
     psi = 0.161*[#   2]+0.161*[#   3]+0.161*[#   4]+0.161*[#   6]+0.161*[#   7]
          +0.161*[#   8]
    |psi|^2 = 0.966
==== e(   6) =    21.74809 eV ==== 
     psi = 0.133*[#   2]+0.133*[#   3]+0.133*[#   4]+0.133*[#   6]+0.133*[#   7]
          +0.133*[#   8]+0.074*[#   1]+0.074*[#   5]
    |psi|^2 = 0.949
==== e(   7) =    21.89609 eV ==== 
     psi = 0.128*[#   1]+0.128*[#   5]+0.116*[#   2]+0.116*[#   3]+0.116*[#   4]
          +0.116*[#   6]+0.116*[#   7]+0.116*[#   8]
    |psi|^2 = 0.950
==== e(   8) =    27.21435 eV ==== 
     psi = 0.289*[#   1]+0.289*[#   5]+0.044*[#   2]+0.044*[#   3]+0.044*[#   4]
          +0.044*[#   6]+0.044*[#   7]+0.044*[#   8]
    |psi|^2 = 0.842

 k =   0.2500000000 -0.0500000000  0.2500000000
==== e(   1) =    -6.94948 eV ==== 
     psi = 0.350*[#   1]+0.350*[#   5]+0.049*[#   2]+0.049*[#   3]+0.049*[#   4]
          +0.049*[#   6]+0.049*[#   7]+0.049*[#   8]
    |psi|^2 = 0.993
==== e(   2) =     8.88569 eV ==== 
     psi = 0.143*[#   2]+0.143*[#   3]+0.143*[#   4]+0.143*[#   6]+0.143*[#   7]
          +0.143*[#   8]+0.067*[#   1]+0.067*[#   5]
    |psi|^2 = 0.995
==== e(   3) =    10.18817 eV ==== 
     psi = 0.154*[#   2]+0.154*[#   3]+0.154*[#   4]+0.154*[#   6]+0.154*[#   7]
          +0.154*[#   8]+0.035*[#   1]+0.035*[#   5]
    |psi|^2 = 0.995
==== e(   4) =    12.38164 eV ==== 
     psi = 0.166*[#   2]+0.166*[#   3]+0.166*[#   4]+0.166*[#   6]+0.166*[#   7]
          +0.166*[#   8]
    |psi|^2 = 0.996
==== e(   5) =    20.03831 eV ==== 
     psi = 0.162*[#   2]+0.162*[#   3]+0.162*[#   4]+0.162*[#   6]+0.162*[#   7]
          +0.162*[#   8]
    |psi|^2 = 0.972
==== e(   6) =    21.27537 eV ==== 
     psi = 0.127*[#   2]+0.127*[#   3]+0.127*[#   4]+0.127*[#   6]+0.127*[#   7]
          +0.127*[#   8]+0.098*[#   1]+0.098*[#   5]
    |psi|^2 = 0.962
==== e(   7) =    21.43616 eV ==== 
     psi = 0.141*[#   2]+0.141*[#   3]+0.141*[#   4]+0.141*[#   6]+0.141*[#   7]
          +0.141*[#   8]+0.058*[#   1]+0.058*[#   5]
    |psi|^2 = 0.962
==== e(   8) =    27.04644 eV ==== 
     psi = 0.341*[#   1]+0.341*[#   5]+0.034*[#   2]+0.034*[#   3]+0.034*[#   4]
          +0.034*[#   6]+0.034*[#   7]+0.034*[#   8]
    |psi|^2 = 0.885

 k =   0.2000000000  0.0000000000  0.2000000000
==== e(   1) =    -7.37986 eV ==== 
     psi = 0.384*[#   1]+0.384*[#   5]+0.038*[#   2]+0.038*[#   3]+0.038*[#   4]
          +0.038*[#   6]+0.038*[#   7]+0.038*[#   8]
    |psi|^2 = 0.994
==== e(   2) =    10.26344 eV ==== 
     psi = 0.151*[#   2]+0.151*[#   3]+0.151*[#   4]+0.151*[#   6]+0.151*[#   7]
          +0.151*[#   8]+0.044*[#   1]+0.044*[#   5]
    |psi|^2 = 0.995
==== e(   3) =    10.82504 eV ==== 
     psi = 0.156*[#   2]+0.156*[#   3]+0.156*[#   4]+0.156*[#   6]+0.156*[#   7]
          +0.156*[#   8]+0.029*[#   1]+0.029*[#   5]
    |psi|^2 = 0.994
==== e(   4) =    12.70990 eV ==== 
     psi = 0.166*[#   2]+0.166*[#   3]+0.166*[#   4]+0.166*[#   6]+0.166*[#   7]
          +0.166*[#   8]
    |psi|^2 = 0.995
==== e(   5) =    19.57307 eV ==== 
     psi = 0.163*[#   2]+0.163*[#   3]+0.163*[#   4]+0.163*[#   6]+0.163*[#   7]
          +0.163*[#   8]
    |psi|^2 = 0.975
==== e(   6) =    20.58345 eV ==== 
     psi = 0.134*[#   2]+0.134*[#   3]+0.134*[#   4]+0.134*[#   6]+0.134*[#   7]
          +0.134*[#   8]+0.081*[#   1]+0.081*[#   5]
    |psi|^2 = 0.969
==== e(   7) =    20.93645 eV ==== 
     psi = 0.150*[#   2]+0.150*[#   3]+0.150*[#   4]+0.150*[#   6]+0.150*[#   7]
          +0.150*[#   8]+0.033*[#   1]+0.033*[#   5]
    |psi|^2 = 0.969
==== e(   8) =    26.93989 eV ==== 
     psi = 0.390*[#   1]+0.390*[#   5]+0.024*[#   2]+0.024*[#   3]+0.024*[#   4]
          +0.024*[#   6]+0.024*[#   7]+0.024*[#   8]
    |psi|^2 = 0.925

 k =   0.0000000000  0.3000000000  0.0000000000
==== e(   1) =    -7.28912 eV ==== 
     psi = 0.374*[#   1]+0.374*[#   5]+0.041*[#   2]+0.041*[#   3]+0.041*[#   4]
          +0.041*[#   6]+0.041*[#   7]+0.041*[#   8]
    |psi|^2 = 0.993
==== e(   2) =    10.92312 eV ==== 
     psi = 0.166*[#   2]+0.166*[#   3]+0.166*[#   4]+0.166*[#   6]+0.166*[#   7]
          +0.166*[#   8]
    |psi|^2 = 0.996
==== e(   3) =    10.92312 eV ==== 
     psi = 0.166*[#   2]+0.166*[#   3]+0.166*[#   4]+0.166*[#   6]+0.166*[#   7]
          +0.166*[#   8]
    |psi|^2 = 0.996
==== e(   4) =    11.37754 eV ==== 
     psi = 0.145*[#   2]+0.145*[#   3]+0.145*[#   4]+0.145*[#   6]+0.145*[#   7]
          +0.145*[#   8]+0.063*[#   1]+0.063*[#   5]
    |psi|^2 = 0.995
==== e(   5) =    18.21693 eV ==== 
     psi = 0.122*[#   2]+0.122*[#   3]+0.122*[#   4]+0.122*[#   6]+0.122*[#   7]
          +0.122*[#   8]+0.121*[#   1]+0.121*[#   5]
    |psi|^2 = 0.976
==== e(   6) =    21.81574 eV ==== 
     psi = 0.162*[#   2]+0.162*[#   3]+0.162*[#   4]+0.162*[#   6]+0.162*[#   7]
          +0.162*[#   8]
    |psi|^2 = 0.969
==== e(   7) =    21.81574 eV ==== 
     psi = 0.162*[#   2]+0.162*[#   3]+0.162*[#   4]+0.162*[#   6]+0.162*[#   7]
          +0.162*[#   8]
    |psi|^2 = 0.969
==== e(   8) =    26.17047 eV ==== 
     psi = 0.357*[#   1]+0.357*[#   5]+0.019*[#   2]+0.019*[#   3]+0.019*[#   4]
          +0.019*[#   6]+0.019*[#   7]+0.019*[#   8]
    |psi|^2 = 0.828

 k =  -0.0500000000  0.3500000000 -0.0500000000
==== e(   1) =    -6.94878 eV ==== 
     psi = 0.347*[#   1]+0.347*[#   5]+0.050*[#   2]+0.050*[#   3]+0.050*[#   4]
          +0.050*[#   6]+0.050*[#   7]+0.050*[#   8]
    |psi|^2 = 0.993
==== e(   2) =     9.83142 eV ==== 
     psi = 0.153*[#   2]+0.153*[#   3]+0.153*[#   4]+0.153*[#   6]+0.153*[#   7]
          +0.153*[#   8]+0.039*[#   1]+0.039*[#   5]
    |psi|^2 = 0.996
==== e(   3) =    10.43156 eV ==== 
     psi = 0.166*[#   2]+0.166*[#   3]+0.166*[#   4]+0.166*[#   6]+0.166*[#   7]
          +0.166*[#   8]
    |psi|^2 = 0.997
==== e(   4) =    11.12436 eV ==== 
     psi = 0.151*[#   2]+0.151*[#   3]+0.151*[#   4]+0.151*[#   6]+0.151*[#   7]
          +0.151*[#   8]+0.046*[#   1]+0.046*[#   5]
    |psi|^2 = 0.996
==== e(   5) =    18.25620 eV ==== 
     psi = 0.132*[#   1]+0.132*[#   5]+0.118*[#   2]+0.118*[#   3]+0.118*[#   4]
          +0.118*[#   6]+0.118*[#   7]+0.118*[#   8]
    |psi|^2 = 0.974
==== e(   6) =    22.52897 eV ==== 
     psi = 0.156*[#   2]+0.156*[#   3]+0.156*[#   4]+0.156*[#   6]+0.156*[#   7]
          +0.156*[#   8]+0.015*[#   1]+0.015*[#   5]
    |psi|^2 = 0.966
==== e(   7) =    22.54777 eV ==== 
     psi = 0.161*[#   2]+0.161*[#   3]+0.161*[#   4]+0.161*[#   6]+0.161*[#   7]
          +0.161*[#   8]
    |psi|^2 = 0.965
==== e(   8) =    25.74104 eV ==== 
     psi = 0.305*[#   1]+0.305*[#   5]+0.023*[#   2]+0.023*[#   3]+0.023*[#   4]
          +0.023*[#   6]+0.023*[#   7]+0.023*[#   8]
    |psi|^2 = 0.750

 k =  -0.1000000000  0.4000000000 -0.1000000000
==== e(   1) =    -6.47514 eV ==== 
     psi = 0.323*[#   1]+0.323*[#   5]+0.058*[#   2]+0.058*[#   3]+0.058*[#   4]
          +0.058*[#   6]+0.058*[#   7]+0.058*[#   8]
    |psi|^2 = 0.993
==== e(   2) =     8.36797 eV ==== 
     psi = 0.143*[#   2]+0.143*[#   3]+0.143*[#   4]+0.143*[#   6]+0.143*[#   7]
          +0.143*[#   8]+0.068*[#   1]+0.068*[#   5]
    |psi|^2 = 0.996
==== e(   3) =    10.00504 eV ==== 
     psi = 0.166*[#   2]+0.166*[#   3]+0.166*[#   4]+0.166*[#   6]+0.166*[#   7]
          +0.166*[#   8]
    |psi|^2 = 0.998
==== e(   4) =    10.80664 eV ==== 
     psi = 0.151*[#   2]+0.151*[#   3]+0.151*[#   4]+0.151*[#   6]+0.151*[#   7]
          +0.151*[#   8]+0.046*[#   1]+0.046*[#   5]
    |psi|^2 = 0.997
==== e(   5) =    18.61716 eV ==== 
     psi = 0.127*[#   1]+0.127*[#   5]+0.119*[#   2]+0.119*[#   3]+0.119*[#   4]
          +0.119*[#   6]+0.119*[#   7]+0.119*[#   8]
    |psi|^2 = 0.969
==== e(   6) =    23.10066 eV ==== 
     psi = 0.142*[#   2]+0.142*[#   3]+0.142*[#   4]+0.142*[#   6]+0.142*[#   7]
          +0.142*[#   8]+0.055*[#   1]+0.055*[#   5]
    |psi|^2 = 0.960
==== e(   7) =    23.17714 eV ==== 
     psi = 0.160*[#   2]+0.160*[#   3]+0.160*[#   4]+0.160*[#   6]+0.160*[#   7]
          +0.160*[#   8]
    |psi|^2 = 0.959
==== e(   8) =    25.40172 eV ==== 
     psi = 0.253*[#   1]+0.253*[#   5]+0.030*[#   2]+0.030*[#   3]+0.030*[#   4]
          +0.030*[#   6]+0.030*[#   7]+0.030*[#   8]
    |psi|^2 = 0.685

 k =  -0.1500000000  0.4500000000 -0.1500000000
==== e(   1) =    -5.87066 eV ==== 
     psi = 0.302*[#   1]+0.302*[#   5]+0.065*[#   2]+0.065*[#   3]+0.065*[#   4]
          +0.065*[#   6]+0.065*[#   7]+0.065*[#   8]
    |psi|^2 = 0.993
==== e(   2) =     6.80020 eV ==== 
     psi = 0.135*[#   2]+0.135*[#   3]+0.135*[#   4]+0.135*[#   6]+0.135*[#   7]
          +0.135*[#   8]+0.093*[#   1]+0.093*[#   5]
    |psi|^2 = 0.996
==== e(   3) =     9.66340 eV ==== 
     psi = 0.166*[#   2]+0.166*[#   3]+0.166*[#   4]+0.166*[#   6]+0.166*[#   7]
          +0.166*[#   8]
    |psi|^2 = 0.998
==== e(   4) =    10.35566 eV ==== 
     psi = 0.150*[#   2]+0.150*[#   3]+0.150*[#   4]+0.150*[#   6]+0.150*[#   7]
          +0.150*[#   8]+0.048*[#   1]+0.048*[#   5]
    |psi|^2 = 0.997
==== e(   5) =    19.12682 eV ==== 
     psi = 0.120*[#   2]+0.120*[#   3]+0.120*[#   4]+0.120*[#   6]+0.120*[#   7]
          +0.120*[#   8]+0.117*[#   1]+0.117*[#   5]
    |psi|^2 = 0.955
==== e(   6) =    23.50868 eV ==== 
     psi = 0.124*[#   2]+0.124*[#   3]+0.124*[#   4]+0.124*[#   6]+0.124*[#   7]
          +0.124*[#   8]+0.105*[#   1]+0.105*[#   5]
    |psi|^2 = 0.952
==== e(   7) =    23.62702 eV ==== 
     psi = 0.158*[#   2]+0.158*[#   3]+0.158*[#   4]+0.158*[#   6]+0.158*[#   7]
          +0.158*[#   8]
    |psi|^2 = 0.947
==== e(   8) =    25.29134 eV ==== 
     psi = 0.211*[#   1]+0.211*[#   5]+0.037*[#   2]+0.037*[#   3]+0.037*[#   4]
          +0.037*[#   6]+0.037*[#   7]+0.037*[#   8]
    |psi|^2 = 0.645

 k =  -0.2000000000  0.5000000000 -0.2000000000
==== e(   1) =    -5.13894 eV ==== 
     psi = 0.288*[#   1]+0.288*[#   5]+0.070*[#   2]+0.070*[#   3]+0.070*[#   4]
          +0.070*[#   6]+0.070*[#   7]+0.070*[#   8]
    |psi|^2 = 0.993
==== e(   2) =     5.21708 eV ==== 
     psi = 0.128*[#   2]+0.128*[#   3]+0.128*[#   4]+0.128*[#   6]+0.128*[#   7]
          +0.128*[#   8]+0.112*[#   1]+0.112*[#   5]
    |psi|^2 = 0.995
==== e(   3) =     9.42493 eV ==== 
     psi = 0.166*[#   2]+0.166*[#   3]+0.166*[#   4]+0.166*[#   6]+0.166*[#   7]
          +0.166*[#   8]
    |psi|^2 = 0.998
==== e(   4) =     9.85632 eV ==== 
     psi = 0.150*[#   2]+0.150*[#   3]+0.150*[#   4]+0.150*[#   6]+0.150*[#   7]
          +0.150*[#   8]+0.049*[#   1]+0.049*[#   5]
    |psi|^2 = 0.998
==== e(   5) =    19.60823 eV ==== 
     psi = 0.119*[#   2]+0.119*[#   3]+0.119*[#   4]+0.119*[#   6]+0.119*[#   7]
          +0.119*[#   8]+0.109*[#   1]+0.109*[#   5]
    |psi|^2 = 0.931
==== e(   6) =    23.78262 eV ==== 
     psi = 0.152*[#   1]+0.152*[#   5]+0.106*[#   2]+0.106*[#   3]+0.106*[#   4]
          +0.106*[#   6]+0.106*[#   7]+0.106*[#   8]
    |psi|^2 = 0.939
==== e(   7) =    23.87094 eV ==== 
     psi = 0.155*[#   2]+0.155*[#   3]+0.155*[#   4]+0.155*[#   6]+0.155*[#   7]
          +0.155*[#   8]
    |psi|^2 = 0.932
==== e(   8) =    25.52915 eV ==== 
     psi = 0.179*[#   1]+0.179*[#   5]+0.046*[#   2]+0.046*[#   3]+0.046*[#   4]
          +0.046*[#   6]+0.046*[#   7]+0.046*[#   8]
    |psi|^2 = 0.634

 k =  -0.2500000000  0.5500000000 -0.2500000000
==== e(   1) =    -4.28962 eV ==== 
     psi = 0.280*[#   1]+0.280*[#   5]+0.072*[#   2]+0.072*[#   3]+0.072*[#   4]
[...]
          +0.104*[#   8]+0.056*[#   1]+0.056*[#   5]
    |psi|^2 = 0.739
==== e(   6) =    24.05194 eV ==== 
     psi = 0.116*[#   2]+0.116*[#   3]+0.116*[#   4]+0.116*[#   6]+0.116*[#   7]
          +0.116*[#   8]+0.057*[#   1]+0.057*[#   5]
    |psi|^2 = 0.809
==== e(   7) =    26.05201 eV ==== 
     psi = 0.229*[#   1]+0.229*[#   5]+0.061*[#   2]+0.061*[#   3]+0.061*[#   4]
          +0.061*[#   6]+0.061*[#   7]+0.061*[#   8]
    |psi|^2 = 0.827
==== e(   8) =    27.52254 eV ==== 
     psi = 0.145*[#   1]+0.145*[#   5]+0.096*[#   2]+0.096*[#   3]+0.096*[#   4]
          +0.096*[#   6]+0.096*[#   7]+0.096*[#   8]
    |psi|^2 = 0.869

 k =   0.7000000000 -0.1000000000  1.0000000000
==== e(   1) =    -0.37363 eV ==== 
     psi = 0.230*[#   1]+0.230*[#   5]+0.089*[#   2]+0.089*[#   3]+0.089*[#   4]
          +0.089*[#   6]+0.089*[#   7]+0.089*[#   8]
    |psi|^2 = 0.996
==== e(   2) =     2.38101 eV ==== 
     psi = 0.207*[#   1]+0.207*[#   5]+0.097*[#   2]+0.097*[#   3]+0.097*[#   4]
          +0.097*[#   6]+0.097*[#   7]+0.097*[#   8]
    |psi|^2 = 0.998
==== e(   3) =     5.38831 eV ==== 
     psi = 0.158*[#   2]+0.158*[#   3]+0.158*[#   4]+0.158*[#   6]+0.158*[#   7]
          +0.158*[#   8]+0.024*[#   1]+0.024*[#   5]
    |psi|^2 = 0.997
==== e(   4) =     5.86035 eV ==== 
     psi = 0.166*[#   2]+0.166*[#   3]+0.166*[#   4]+0.166*[#   6]+0.166*[#   7]
          +0.166*[#   8]+0.002*[#   1]+0.002*[#   5]
    |psi|^2 = 0.998
==== e(   5) =    20.45760 eV ==== 
     psi = 0.155*[#   1]+0.155*[#   5]+0.084*[#   2]+0.084*[#   3]+0.084*[#   4]
          +0.084*[#   6]+0.084*[#   7]+0.084*[#   8]
    |psi|^2 = 0.815
==== e(   6) =    21.24406 eV ==== 
     psi = 0.153*[#   1]+0.153*[#   5]+0.067*[#   2]+0.067*[#   3]+0.067*[#   4]
          +0.067*[#   6]+0.067*[#   7]+0.067*[#   8]
    |psi|^2 = 0.706
==== e(   7) =    27.30938 eV ==== 
     psi = 0.116*[#   2]+0.116*[#   3]+0.116*[#   4]+0.116*[#   6]+0.116*[#   7]
          +0.116*[#   8]+0.097*[#   1]+0.097*[#   5]
    |psi|^2 = 0.887
==== e(   8) =    29.05603 eV ==== 
     psi = 0.135*[#   2]+0.135*[#   3]+0.135*[#   4]+0.135*[#   6]+0.135*[#   7]
          +0.135*[#   8]+0.063*[#   1]+0.063*[#   5]
    |psi|^2 = 0.938

 k =   0.6500000000 -0.0500000000  0.9500000000
==== e(   1) =     0.48879 eV ==== 
     psi = 0.234*[#   1]+0.234*[#   5]+0.088*[#   2]+0.088*[#   3]+0.088*[#   4]
          +0.088*[#   6]+0.088*[#   7]+0.088*[#   8]
    |psi|^2 = 0.997
==== e(   2) =     1.77979 eV ==== 
     psi = 0.216*[#   1]+0.216*[#   5]+0.094*[#   2]+0.094*[#   3]+0.094*[#   4]
          +0.094*[#   6]+0.094*[#   7]+0.094*[#   8]
    |psi|^2 = 0.998
==== e(   3) =     4.70427 eV ==== 
     psi = 0.163*[#   2]+0.163*[#   3]+0.163*[#   4]+0.163*[#   6]+0.163*[#   7]
          +0.163*[#   8]+0.009*[#   1]+0.009*[#   5]
    |psi|^2 = 0.997
==== e(   4) =     5.80592 eV ==== 
     psi = 0.163*[#   2]+0.163*[#   3]+0.163*[#   4]+0.163*[#   6]+0.163*[#   7]
          +0.163*[#   8]+0.010*[#   1]+0.010*[#   5]
    |psi|^2 = 0.998
==== e(   5) =    20.96948 eV ==== 
     psi = 0.134*[#   1]+0.134*[#   5]+0.083*[#   2]+0.083*[#   3]+0.083*[#   4]
          +0.083*[#   6]+0.083*[#   7]+0.083*[#   8]
    |psi|^2 = 0.765
==== e(   6) =    22.38076 eV ==== 
     psi = 0.127*[#   1]+0.127*[#   5]+0.077*[#   2]+0.077*[#   3]+0.077*[#   4]
          +0.077*[#   6]+0.077*[#   7]+0.077*[#   8]
    |psi|^2 = 0.717
==== e(   7) =    27.03880 eV ==== 
     psi = 0.114*[#   1]+0.114*[#   5]+0.109*[#   2]+0.109*[#   3]+0.109*[#   4]
          +0.109*[#   6]+0.109*[#   7]+0.109*[#   8]
    |psi|^2 = 0.883
==== e(   8) =    28.14799 eV ==== 
     psi = 0.114*[#   2]+0.114*[#   3]+0.114*[#   4]+0.114*[#   6]+0.114*[#   7]
          +0.114*[#   8]+0.101*[#   1]+0.101*[#   5]
    |psi|^2 = 0.885

 k =   0.6000000000 -0.0000000000  0.9000000000
==== e(   1) =     0.75907 eV ==== 
     psi = 0.261*[#   1]+0.261*[#   5]+0.079*[#   2]+0.079*[#   3]+0.079*[#   4]
          +0.079*[#   6]+0.079*[#   7]+0.079*[#   8]
    |psi|^2 = 0.998
==== e(   2) =     1.65961 eV ==== 
     psi = 0.201*[#   1]+0.201*[#   5]+0.099*[#   2]+0.099*[#   3]+0.099*[#   4]
          +0.099*[#   6]+0.099*[#   7]+0.099*[#   8]
    |psi|^2 = 0.997
==== e(   3) =     4.09965 eV ==== 
     psi = 0.166*[#   2]+0.166*[#   3]+0.166*[#   4]+0.166*[#   6]+0.166*[#   7]
          +0.166*[#   8]
    |psi|^2 = 0.996
==== e(   4) =     6.10266 eV ==== 
     psi = 0.163*[#   2]+0.163*[#   3]+0.163*[#   4]+0.163*[#   6]+0.163*[#   7]
          +0.163*[#   8]+0.011*[#   1]+0.011*[#   5]
    |psi|^2 = 0.998
==== e(   5) =    21.23319 eV ==== 
     psi = 0.110*[#   1]+0.110*[#   5]+0.089*[#   2]+0.089*[#   3]+0.089*[#   4]
          +0.089*[#   6]+0.089*[#   7]+0.089*[#   8]
    |psi|^2 = 0.754
==== e(   6) =    23.99360 eV ==== 
     psi = 0.084*[#   1]+0.084*[#   2]+0.084*[#   3]+0.084*[#   4]+0.084*[#   5]
          +0.084*[#   6]+0.084*[#   7]+0.084*[#   8]
    |psi|^2 = 0.670
==== e(   7) =    26.48377 eV ==== 
     psi = 0.129*[#   1]+0.129*[#   5]+0.109*[#   2]+0.109*[#   3]+0.109*[#   4]
          +0.109*[#   6]+0.109*[#   7]+0.109*[#   8]
    |psi|^2 = 0.913
==== e(   8) =    27.19361 eV ==== 
     psi = 0.160*[#   1]+0.160*[#   5]+0.088*[#   2]+0.088*[#   3]+0.088*[#   4]
          +0.088*[#   6]+0.088*[#   7]+0.088*[#   8]
    |psi|^2 = 0.849

 k =  -0.3000000000 -1.0000000000  0.0000000000
==== e(   1) =     1.02721 eV ==== 
     psi = 0.219*[#   1]+0.219*[#   5]+0.093*[#   2]+0.093*[#   3]+0.093*[#   4]
          +0.093*[#   6]+0.093*[#   7]+0.093*[#   8]
    |psi|^2 = 0.997
==== e(   2) =     1.02721 eV ==== 
     psi = 0.219*[#   1]+0.219*[#   5]+0.093*[#   2]+0.093*[#   3]+0.093*[#   4]
          +0.093*[#   6]+0.093*[#   7]+0.093*[#   8]
    |psi|^2 = 0.997
==== e(   3) =     5.46850 eV ==== 
     psi = 0.162*[#   2]+0.162*[#   3]+0.162*[#   4]+0.162*[#   6]+0.162*[#   7]
          +0.162*[#   8]+0.012*[#   1]+0.012*[#   5]
    |psi|^2 = 0.998
==== e(   4) =     5.46850 eV ==== 
     psi = 0.162*[#   2]+0.162*[#   3]+0.162*[#   4]+0.162*[#   6]+0.162*[#   7]
          +0.162*[#   8]+0.012*[#   1]+0.012*[#   5]
    |psi|^2 = 0.998
==== e(   5) =    20.76357 eV ==== 
     psi = 0.157*[#   1]+0.157*[#   5]+0.075*[#   2]+0.075*[#   3]+0.075*[#   4]
          +0.075*[#   6]+0.075*[#   7]+0.075*[#   8]
    |psi|^2 = 0.763
==== e(   6) =    20.76357 eV ==== 
     psi = 0.157*[#   1]+0.157*[#   5]+0.075*[#   2]+0.075*[#   3]+0.075*[#   4]
          +0.075*[#   6]+0.075*[#   7]+0.075*[#   8]
    |psi|^2 = 0.763
==== e(   7) =    28.36664 eV ==== 
     psi = 0.123*[#   2]+0.123*[#   3]+0.123*[#   4]+0.123*[#   6]+0.123*[#   7]
          +0.123*[#   8]+0.080*[#   1]+0.080*[#   5]
    |psi|^2 = 0.894
==== e(   8) =    28.36664 eV ==== 
     psi = 0.123*[#   2]+0.123*[#   3]+0.123*[#   4]+0.123*[#   6]+0.123*[#   7]
          +0.123*[#   8]+0.080*[#   1]+0.080*[#   5]
    |psi|^2 = 0.894

 k =   0.6000000000 -0.2000000000  1.0000000000
==== e(   1) =    -1.20874 eV ==== 
     psi = 0.247*[#   1]+0.247*[#   5]+0.084*[#   2]+0.084*[#   3]+0.084*[#   4]
          +0.084*[#   6]+0.084*[#   7]+0.084*[#   8]
    |psi|^2 = 0.996
==== e(   2) =     3.14028 eV ==== 
     psi = 0.181*[#   1]+0.181*[#   5]+0.106*[#   2]+0.106*[#   3]+0.106*[#   4]
          +0.106*[#   6]+0.106*[#   7]+0.106*[#   8]
    |psi|^2 = 0.998
==== e(   3) =     4.77684 eV ==== 
     psi = 0.153*[#   2]+0.153*[#   3]+0.153*[#   4]+0.153*[#   6]+0.153*[#   7]
          +0.153*[#   8]+0.038*[#   1]+0.038*[#   5]
    |psi|^2 = 0.996
==== e(   4) =     6.71756 eV ==== 
     psi = 0.164*[#   2]+0.164*[#   3]+0.164*[#   4]+0.164*[#   6]+0.164*[#   7]
          +0.164*[#   8]+0.008*[#   1]+0.008*[#   5]
    |psi|^2 = 0.998
==== e(   5) =    22.12798 eV ==== 
     psi = 0.105*[#   1]+0.105*[#   5]+0.104*[#   2]+0.104*[#   3]+0.104*[#   4]
          +0.104*[#   6]+0.104*[#   7]+0.104*[#   8]
    |psi|^2 = 0.834
==== e(   6) =    22.93064 eV ==== 
     psi = 0.099*[#   2]+0.099*[#   3]+0.099*[#   4]+0.099*[#   6]+0.099*[#   7]
          +0.099*[#   8]+0.010*[#   1]+0.010*[#   5]
    |psi|^2 = 0.613
==== e(   7) =    25.02567 eV ==== 
     psi = 0.262*[#   1]+0.262*[#   5]+0.068*[#   2]+0.068*[#   3]+0.068*[#   4]
          +0.068*[#   6]+0.068*[#   7]+0.068*[#   8]
    |psi|^2 = 0.929
==== e(   8) =    28.53271 eV ==== 
     psi = 0.127*[#   2]+0.127*[#   3]+0.127*[#   4]+0.127*[#   6]+0.127*[#   7]
          +0.127*[#   8]+0.093*[#   1]+0.093*[#   5]
    |psi|^2 = 0.951

 k =   0.5500000000 -0.1500000000  0.9500000000
==== e(   1) =    -0.32186 eV ==== 
     psi = 0.253*[#   1]+0.253*[#   5]+0.082*[#   2]+0.082*[#   3]+0.082*[#   4]
          +0.082*[#   6]+0.082*[#   7]+0.082*[#   8]
    |psi|^2 = 0.997
==== e(   2) =     2.39818 eV ==== 
     psi = 0.177*[#   1]+0.177*[#   5]+0.107*[#   2]+0.107*[#   3]+0.107*[#   4]
          +0.107*[#   6]+0.107*[#   7]+0.107*[#   8]
    |psi|^2 = 0.997
==== e(   3) =     4.51671 eV ==== 
     psi = 0.152*[#   2]+0.152*[#   3]+0.152*[#   4]+0.152*[#   6]+0.152*[#   7]
          +0.152*[#   8]+0.041*[#   1]+0.041*[#   5]
    |psi|^2 = 0.997
==== e(   4) =     6.28615 eV ==== 
     psi = 0.164*[#   2]+0.164*[#   3]+0.164*[#   4]+0.164*[#   6]+0.164*[#   7]
          +0.164*[#   8]+0.006*[#   1]+0.006*[#   5]
    |psi|^2 = 0.998
==== e(   5) =    22.55236 eV ==== 
     psi = 0.105*[#   2]+0.105*[#   3]+0.105*[#   4]+0.105*[#   6]+0.105*[#   7]
          +0.105*[#   8]+0.039*[#   1]+0.039*[#   5]
    |psi|^2 = 0.707
==== e(   6) =    23.42717 eV ==== 
     psi = 0.104*[#   2]+0.104*[#   3]+0.104*[#   4]+0.104*[#   6]+0.104*[#   7]
          +0.104*[#   8]+0.060*[#   1]+0.060*[#   5]
    |psi|^2 = 0.742
==== e(   7) =    25.37680 eV ==== 
     psi = 0.253*[#   1]+0.253*[#   5]+0.065*[#   2]+0.065*[#   3]+0.065*[#   4]
          +0.065*[#   6]+0.065*[#   7]+0.065*[#   8]
    |psi|^2 = 0.893
==== e(   8) =    27.69338 eV ==== 
     psi = 0.132*[#   1]+0.132*[#   5]+0.102*[#   2]+0.102*[#   3]+0.102*[#   4]
          +0.102*[#   6]+0.102*[#   7]+0.102*[#   8]
    |psi|^2 = 0.875

 k =   0.5000000000 -0.1000000000  0.9000000000
==== e(   1) =     0.19507 eV ==== 
     psi = 0.270*[#   1]+0.270*[#   5]+0.076*[#   2]+0.076*[#   3]+0.076*[#   4]
          +0.076*[#   6]+0.076*[#   7]+0.076*[#   8]
    |psi|^2 = 0.998
==== e(   2) =     1.89589 eV ==== 
     psi = 0.158*[#   1]+0.158*[#   5]+0.113*[#   2]+0.113*[#   3]+0.113*[#   4]
          +0.113*[#   6]+0.113*[#   7]+0.113*[#   8]
    |psi|^2 = 0.996
==== e(   3) =     4.47823 eV ==== 
     psi = 0.151*[#   2]+0.151*[#   3]+0.151*[#   4]+0.151*[#   6]+0.151*[#   7]
          +0.151*[#   8]+0.046*[#   1]+0.046*[#   5]
    |psi|^2 = 0.997
==== e(   4) =     6.12416 eV ==== 
     psi = 0.165*[#   2]+0.165*[#   3]+0.165*[#   4]+0.165*[#   6]+0.165*[#   7]
          +0.165*[#   8]+0.004*[#   1]+0.004*[#   5]
    |psi|^2 = 0.998
==== e(   5) =    22.55247 eV ==== 
     psi = 0.108*[#   2]+0.108*[#   3]+0.108*[#   4]+0.108*[#   6]+0.108*[#   7]
          +0.108*[#   8]+0.018*[#   1]+0.018*[#   5]
    |psi|^2 = 0.682
==== e(   6) =    23.74890 eV ==== 
     psi = 0.107*[#   1]+0.107*[#   5]+0.096*[#   2]+0.096*[#   3]+0.096*[#   4]
          +0.096*[#   6]+0.096*[#   7]+0.096*[#   8]
    |psi|^2 = 0.793
==== e(   7) =    26.27861 eV ==== 
     psi = 0.168*[#   1]+0.168*[#   5]+0.078*[#   2]+0.078*[#   3]+0.078*[#   4]
          +0.078*[#   6]+0.078*[#   7]+0.078*[#   8]
    |psi|^2 = 0.804
==== e(   8) =    26.55156 eV ==== 
     psi = 0.193*[#   1]+0.193*[#   5]+0.084*[#   2]+0.084*[#   3]+0.084*[#   4]
          +0.084*[#   6]+0.084*[#   7]+0.084*[#   8]
    |psi|^2 = 0.893

 k =   0.6000000000 -0.1000000000  1.0000000000
==== e(   1) =     0.05152 eV ==== 
     psi = 0.240*[#   1]+0.240*[#   5]+0.086*[#   2]+0.086*[#   3]+0.086*[#   4]
          +0.086*[#   6]+0.086*[#   7]+0.086*[#   8]
    |psi|^2 = 0.997
==== e(   2) =     2.32075 eV ==== 
     psi = 0.213*[#   1]+0.213*[#   5]+0.095*[#   2]+0.095*[#   3]+0.095*[#   4]
          +0.095*[#   6]+0.095*[#   7]+0.095*[#   8]
    |psi|^2 = 0.998
==== e(   3) =     4.69958 eV ==== 
     psi = 0.159*[#   2]+0.159*[#   3]+0.159*[#   4]+0.159*[#   6]+0.159*[#   7]
          +0.159*[#   8]+0.021*[#   1]+0.021*[#   5]
    |psi|^2 = 0.997
==== e(   4) =     5.61827 eV ==== 
     psi = 0.166*[#   2]+0.166*[#   3]+0.166*[#   4]+0.166*[#   6]+0.166*[#   7]
          +0.166*[#   8]
    |psi|^2 = 0.998
==== e(   5) =    22.26408 eV ==== 
     psi = 0.109*[#   1]+0.109*[#   5]+0.094*[#   2]+0.094*[#   3]+0.094*[#   4]
          +0.094*[#   6]+0.094*[#   7]+0.094*[#   8]
    |psi|^2 = 0.778
==== e(   6) =    22.78677 eV ==== 
     psi = 0.085*[#   2]+0.085*[#   3]+0.085*[#   4]+0.085*[#   6]+0.085*[#   7]
          +0.085*[#   8]+0.067*[#   1]+0.067*[#   5]
    |psi|^2 = 0.642
==== e(   7) =    25.72351 eV ==== 
     psi = 0.190*[#   1]+0.190*[#   5]+0.089*[#   2]+0.089*[#   3]+0.089*[#   4]
          +0.089*[#   6]+0.089*[#   7]+0.089*[#   8]
    |psi|^2 = 0.914
==== e(   8) =    27.89673 eV ==== 
     psi = 0.114*[#   1]+0.114*[#   5]+0.108*[#   2]+0.108*[#   3]+0.108*[#   4]
          +0.108*[#   6]+0.108*[#   7]+0.108*[#   8]
    |psi|^2 = 0.879

 k =   0.5500000000 -0.0500000000  0.9500000000
==== e(   1) =     0.75148 eV ==== 
     psi = 0.251*[#   1]+0.251*[#   5]+0.083*[#   2]+0.083*[#   3]+0.083*[#   4]
          +0.083*[#   6]+0.083*[#   7]+0.083*[#   8]
    |psi|^2 = 0.998
==== e(   2) =     1.83004 eV ==== 
     psi = 0.215*[#   1]+0.215*[#   5]+0.095*[#   2]+0.095*[#   3]+0.095*[#   4]
          +0.095*[#   6]+0.095*[#   7]+0.095*[#   8]
    |psi|^2 = 0.998
==== e(   3) =     4.39112 eV ==== 
     psi = 0.163*[#   2]+0.163*[#   3]+0.163*[#   4]+0.163*[#   6]+0.163*[#   7]
          +0.163*[#   8]+0.009*[#   1]+0.009*[#   5]
    |psi|^2 = 0.997
==== e(   4) =     5.42923 eV ==== 
     psi = 0.165*[#   2]+0.165*[#   3]+0.165*[#   4]+0.165*[#   6]+0.165*[#   7]
          +0.165*[#   8]+0.004*[#   1]+0.004*[#   5]
    |psi|^2 = 0.998
==== e(   5) =    22.65918 eV ==== 
     psi = 0.096*[#   2]+0.096*[#   3]+0.096*[#   4]+0.096*[#   6]+0.096*[#   7]
          +0.096*[#   8]+0.061*[#   1]+0.061*[#   5]
    |psi|^2 = 0.699
==== e(   6) =    23.89423 eV ==== 
     psi = 0.098*[#   2]+0.098*[#   3]+0.098*[#   4]+0.098*[#   6]+0.098*[#   7]
          +0.098*[#   8]+0.027*[#   1]+0.027*[#   5]
    |psi|^2 = 0.643
==== e(   7) =    25.62620 eV ==== 
     psi = 0.229*[#   1]+0.229*[#   5]+0.080*[#   2]+0.080*[#   3]+0.080*[#   4]
          +0.080*[#   6]+0.080*[#   7]+0.080*[#   8]
    |psi|^2 = 0.936
==== e(   8) =    26.60553 eV ==== 
     psi = 0.167*[#   1]+0.167*[#   5]+0.089*[#   2]+0.089*[#   3]+0.089*[#   4]
          +0.089*[#   6]+0.089*[#   7]+0.089*[#   8]
    |psi|^2 = 0.870

 k =   0.5000000000  0.0000000000  0.9000000000
==== e(   1) =     0.47670 eV ==== 
     psi = 0.255*[#   1]+0.255*[#   5]+0.081*[#   2]+0.081*[#   3]+0.081*[#   4]
          +0.081*[#   6]+0.081*[#   7]+0.081*[#   8]
    |psi|^2 = 0.998
==== e(   2) =     2.05457 eV ==== 
     psi = 0.209*[#   1]+0.209*[#   5]+0.097*[#   2]+0.097*[#   3]+0.097*[#   4]
          +0.097*[#   6]+0.097*[#   7]+0.097*[#   8]
    |psi|^2 = 0.998
==== e(   3) =     4.21130 eV ==== 
     psi = 0.163*[#   2]+0.163*[#   3]+0.163*[#   4]+0.163*[#   6]+0.163*[#   7]
          +0.163*[#   8]+0.010*[#   1]+0.010*[#   5]
    |psi|^2 = 0.996
==== e(   4) =     5.72352 eV ==== 
     psi = 0.164*[#   2]+0.164*[#   3]+0.164*[#   4]+0.164*[#   6]+0.164*[#   7]
          +0.164*[#   8]+0.006*[#   1]+0.006*[#   5]
    |psi|^2 = 0.998
==== e(   5) =    22.83096 eV ==== 
     psi = 0.103*[#   2]+0.103*[#   3]+0.103*[#   4]+0.103*[#   6]+0.103*[#   7]
          +0.103*[#   8]+0.027*[#   1]+0.027*[#   5]
    |psi|^2 = 0.672
==== e(   6) =    24.07447 eV ==== 
     psi = 0.106*[#   2]+0.106*[#   3]+0.106*[#   4]+0.106*[#   6]+0.106*[#   7]
          +0.106*[#   8]+0.035*[#   1]+0.035*[#   5]
    |psi|^2 = 0.705
==== e(   7) =    25.64354 eV ==== 
     psi = 0.237*[#   1]+0.237*[#   5]+0.069*[#   2]+0.069*[#   3]+0.069*[#   4]
          +0.069*[#   6]+0.069*[#   7]+0.069*[#   8]
    |psi|^2 = 0.886
==== e(   8) =    26.37733 eV ==== 
     psi = 0.186*[#   1]+0.186*[#   5]+0.085*[#   2]+0.085*[#   3]+0.085*[#   4]
          +0.085*[#   6]+0.085*[#   7]+0.085*[#   8]
    |psi|^2 = 0.881

 k =  -0.4000000000 -1.0000000000  0.0000000000
==== e(   1) =     1.27415 eV ==== 
     psi = 0.232*[#   1]+0.232*[#   5]+0.089*[#   2]+0.089*[#   3]+0.089*[#   4]
          +0.089*[#   6]+0.089*[#   7]+0.089*[#   8]
    |psi|^2 = 0.998
==== e(   2) =     1.27415 eV ==== 
     psi = 0.232*[#   1]+0.232*[#   5]+0.089*[#   2]+0.089*[#   3]+0.089*[#   4]
          +0.089*[#   6]+0.089*[#   7]+0.089*[#   8]
    |psi|^2 = 0.998
==== e(   3) =     4.94456 eV ==== 
     psi = 0.164*[#   2]+0.164*[#   3]+0.164*[#   4]+0.164*[#   6]+0.164*[#   7]
          +0.164*[#   8]+0.005*[#   1]+0.005*[#   5]
    |psi|^2 = 0.997
==== e(   4) =     4.94456 eV ==== 
     psi = 0.164*[#   2]+0.164*[#   3]+0.164*[#   4]+0.164*[#   6]+0.164*[#   7]
          +0.164*[#   8]+0.005*[#   1]+0.005*[#   5]
    |psi|^2 = 0.997
==== e(   5) =    22.49561 eV ==== 
     psi = 0.099*[#   1]+0.099*[#   5]+0.086*[#   2]+0.086*[#   3]+0.086*[#   4]
          +0.086*[#   6]+0.086*[#   7]+0.086*[#   8]
    |psi|^2 = 0.714
==== e(   6) =    22.49561 eV ==== 
     psi = 0.099*[#   1]+0.099*[#   5]+0.086*[#   2]+0.086*[#   3]+0.086*[#   4]
          +0.086*[#   6]+0.086*[#   7]+0.086*[#   8]
    |psi|^2 = 0.714
==== e(   7) =    26.80751 eV ==== 
     psi = 0.142*[#   1]+0.142*[#   5]+0.098*[#   2]+0.098*[#   3]+0.098*[#   4]
          +0.098*[#   6]+0.098*[#   7]+0.098*[#   8]
    |psi|^2 = 0.874
==== e(   8) =    26.80751 eV ==== 
     psi = 0.142*[#   1]+0.142*[#   5]+0.098*[#   2]+0.098*[#   3]+0.098*[#   4]
          +0.098*[#   6]+0.098*[#   7]+0.098*[#   8]
    |psi|^2 = 0.874

 k =  -0.5000000000 -1.0000000000  0.0000000000
==== e(   1) =     1.38535 eV ==== 
     psi = 0.240*[#   1]+0.240*[#   5]+0.086*[#   2]+0.086*[#   3]+0.086*[#   4]
          +0.086*[#   6]+0.086*[#   7]+0.086*[#   8]
    |psi|^2 = 0.998
==== e(   2) =     1.38535 eV ==== 
     psi = 0.240*[#   1]+0.240*[#   5]+0.086*[#   2]+0.086*[#   3]+0.086*[#   4]
          +0.086*[#   6]+0.086*[#   7]+0.086*[#   8]
    |psi|^2 = 0.998
==== e(   3) =     4.73490 eV ==== 
     psi = 0.166*[#   2]+0.166*[#   3]+0.166*[#   4]+0.166*[#   6]+0.166*[#   7]
          +0.166*[#   8]
    |psi|^2 = 0.997
==== e(   4) =     4.73490 eV ==== 
     psi = 0.166*[#   2]+0.166*[#   3]+0.166*[#   4]+0.166*[#   6]+0.166*[#   7]
          +0.166*[#   8]
    |psi|^2 = 0.997
==== e(   5) =    23.73469 eV ==== 
     psi = 0.103*[#   2]+0.103*[#   3]+0.103*[#   4]+0.103*[#   6]+0.103*[#   7]
          +0.103*[#   8]
    |psi|^2 = 0.616
==== e(   6) =    23.73469 eV ==== 
     psi = 0.103*[#   2]+0.103*[#   3]+0.103*[#   4]+0.103*[#   6]+0.103*[#   7]
          +0.103*[#   8]
    |psi|^2 = 0.616
==== e(   7) =    25.61895 eV ==== 
     psi = 0.243*[#   1]+0.243*[#   5]+0.077*[#   2]+0.077*[#   3]+0.077*[#   4]
          +0.077*[#   6]+0.077*[#   7]+0.077*[#   8]
    |psi|^2 = 0.946
==== e(   8) =    25.61895 eV ==== 
     psi = 0.243*[#   1]+0.243*[#   5]+0.077*[#   2]+0.077*[#   3]+0.077*[#   4]
          +0.077*[#   6]+0.077*[#   7]+0.077*[#   8]
    |psi|^2 = 0.946

Lowdin Charges: 

     Atom #   1: total charge =   3.9850, s =  0.9093, 
     Atom #   1: total charge =   3.9850, p =  3.0756, pz=  1.0252, px=  1.0252, py=  1.0252, 
     Atom #   2: total charge =   3.9850, s =  0.9093, 
     Atom #   2: total charge =   3.9850, p =  3.0756, pz=  1.0252, px=  1.0252, py=  1.0252, 
     Spilling Parameter:   0.0038
 
     PROJWFC      :      0.39s CPU      0.62s WALL

 
   This run was terminated on:  16:37:22  19Jul2024            

=------------------------------------------------------------------------------=
   JOB DONE.
=------------------------------------------------------------------------------=
