
     Program PWSCF v.7.1 starts on  2Jun2023 at 11:22:17 

     This program is part of the open-source Quantum ESPRESSO suite
     for quantum simulation of materials; please cite
         "P. Giannozzi et al., J. Phys.:Condens. Matter 21 395502 (2009);
         "P. Giannozzi et al., J. Phys.:Condens. Matter 29 465901 (2017);
         "P. Giannozzi et al., J. Chem. Phys. 152 154105 (2020);
          URL http://www.quantum-espresso.org", 
     in publications or presentations arising from this work. More details at
     http://www.quantum-espresso.org/quote

     Parallel version (MPI), running on     1 processors

     MPI processes distributed on     1 nodes
     4947 MiB available memory on the printing compute node when the environment starts
 
     Waiting for input...
     Reading input from standard input

     Current dimensions of program PWSCF are:
     Max number of different atomic species (ntypx) = 10
     Max number of k-points (npk) =  40000
     Max angular momentum in pseudopotentials (lmaxx) =  4
     file H.pz-vbc.UPF: wavefunction(s)  1S renormalized

     gamma-point specific algorithms are used
 
     Subspace diagonalization in iterative solution of the eigenvalue problem:
     a serial algorithm will be used

 
     G-vector sticks info
     --------------------
     sticks:   dense  smooth     PW     G-vecs:    dense   smooth      PW
     Sum       27281   27281   6817              3389267  3389267  423701
 
     Using Slab Decomposition
 


     bravais-lattice index     =            1
     lattice parameter (alat)  =      37.7945  a.u.
     unit-cell volume          =   53986.6760 (a.u.)^3
     number of atoms/cell      =            5
     number of atomic types    =            2
     number of electrons       =         8.00
     number of Kohn-Sham states=            4
     kinetic-energy cutoff     =      60.0000  Ry
     charge density cutoff     =     240.0000  Ry
     scf convergence threshold =      1.0E-06
     mixing beta               =       0.7000
     number of iterations used =            8  plain     mixing
     Exchange-correlation=  SLA  PZ   NOGX NOGC
                           (   1   1   0   0   0   0   0)

     celldm(1)=  37.794522  celldm(2)=   0.000000  celldm(3)=   0.000000
     celldm(4)=   0.000000  celldm(5)=   0.000000  celldm(6)=   0.000000

     crystal axes: (cart. coord. in units of alat)
               a(1) = (   1.000000   0.000000   0.000000 )  
               a(2) = (   0.000000   1.000000   0.000000 )  
               a(3) = (   0.000000   0.000000   1.000000 )  

     reciprocal axes: (cart. coord. in units 2 pi/alat)
               b(1) = (  1.000000  0.000000  0.000000 )  
               b(2) = (  0.000000  1.000000  0.000000 )  
               b(3) = (  0.000000  0.000000  1.000000 )  


     PseudoPot. # 1 for C  read from file:
     ./C.pz-vbc.UPF
     MD5 check sum: ab53dd623bfeb79c5a7b057bc96eae20
     Pseudo is Norm-conserving, Zval =  4.0
     Generated by new atomic code, or converted to UPF format
     Using radial grid of  269 points,  1 beta functions with: 
                l(1) =   0

     PseudoPot. # 2 for H  read from file:
     ./H.pz-vbc.UPF
     MD5 check sum: 90becb985b714f09656c73597998d266
     Pseudo is Norm-conserving, Zval =  1.0
     Generated by new atomic code, or converted to UPF format
     Using radial grid of  131 points,  0 beta functions with: 

     atomic species   valence    mass     pseudopotential
        C              4.00    12.01100     C ( 1.00)
        H              1.00     1.00800     H ( 1.00)

      2 Sym. Ops. (no inversion) found



   Cartesian axes

     site n.     atom                  positions (alat units)
         1           C   tau(   1) = (   0.0000000   0.0000000   0.0000000  )
         2           H   tau(   2) = (   0.0000000   0.0000000   0.0544500  )
         3           H   tau(   3) = (   0.0513359   0.0000000  -0.0181500  )
         4           H   tau(   4) = (  -0.0256680  -0.0444582  -0.0181500  )
         5           H   tau(   5) = (  -0.0256680   0.0444582  -0.0181500  )

     number of k points=     1
                       cart. coord. in units 2pi/alat
        k(    1) = (   0.0000000   0.0000000   0.0000000), wk =   2.0000000

     Dense  grid:  1694634 G-vectors     FFT dimensions: ( 192, 192, 192)

     Estimated max dynamical RAM per process >       1.28 GB

     Initial potential from superposition of free atoms

     starting charge       7.9999, renormalised to       8.0000

     negative rho (up, down):  1.015E-01 0.000E+00
     Starting wfcs are    8 randomized atomic wfcs

     total cpu time spent up to now is        3.3 secs

     Self-consistent Calculation

     iteration #  1     ecut=    60.00 Ry     beta= 0.70
     Davidson diagonalization with overlap
     ethr =  1.00E-02,  avg # of iterations =  2.0

     negative rho (up, down):  3.029E-02 0.000E+00

     total cpu time spent up to now is        6.5 secs

     total energy              =     -15.78764139 Ry
     estimated scf accuracy    <       0.76519059 Ry

     iteration #  2     ecut=    60.00 Ry     beta= 0.70
     Davidson diagonalization with overlap
     ethr =  9.56E-03,  avg # of iterations =  2.0

     negative rho (up, down):  1.593E-02 0.000E+00

     total cpu time spent up to now is        9.4 secs

     total energy              =     -15.99673855 Ry
     estimated scf accuracy    <       0.22702168 Ry

     iteration #  3     ecut=    60.00 Ry     beta= 0.70
     Davidson diagonalization with overlap
     ethr =  2.84E-03,  avg # of iterations =  2.0

     negative rho (up, down):  3.155E-03 0.000E+00

     total cpu time spent up to now is       12.3 secs

     total energy              =     -16.02535591 Ry
     estimated scf accuracy    <       0.00744149 Ry

     iteration #  4     ecut=    60.00 Ry     beta= 0.70
     Davidson diagonalization with overlap
     ethr =  9.30E-05,  avg # of iterations =  3.0

     negative rho (up, down):  1.789E-03 0.000E+00

     total cpu time spent up to now is       15.8 secs

     total energy              =     -16.02710203 Ry
     estimated scf accuracy    <       0.00852138 Ry

     iteration #  5     ecut=    60.00 Ry     beta= 0.70
     Davidson diagonalization with overlap
     ethr =  9.30E-05,  avg # of iterations =  2.0

     negative rho (up, down):  3.643E-04 0.000E+00

     total cpu time spent up to now is       18.8 secs

     total energy              =     -16.02844105 Ry
     estimated scf accuracy    <       0.00000985 Ry

     iteration #  6     ecut=    60.00 Ry     beta= 0.70
     Davidson diagonalization with overlap
     ethr =  1.23E-07,  avg # of iterations =  4.0

     negative rho (up, down):  2.439E-05 0.000E+00

     total cpu time spent up to now is       22.7 secs

     total energy              =     -16.02834220 Ry
     estimated scf accuracy    <       0.00062133 Ry

     iteration #  7     ecut=    60.00 Ry     beta= 0.70
     Davidson diagonalization with overlap
     ethr =  1.23E-07,  avg # of iterations =  3.0

     negative rho (up, down):  5.849E-06 0.000E+00

     total cpu time spent up to now is       26.2 secs

     total energy              =     -16.02842079 Ry
     estimated scf accuracy    <       0.00001041 Ry

     iteration #  8     ecut=    60.00 Ry     beta= 0.70
     Davidson diagonalization with overlap
     ethr =  1.23E-07,  avg # of iterations =  1.0

     negative rho (up, down):  9.568E-06 0.000E+00

     total cpu time spent up to now is       28.9 secs

     total energy              =     -16.02842108 Ry
     estimated scf accuracy    <       0.00000259 Ry

     iteration #  9     ecut=    60.00 Ry     beta= 0.70
     Davidson diagonalization with overlap
     ethr =  3.24E-08,  avg # of iterations =  2.0

     total cpu time spent up to now is       31.3 secs

     End of self-consistent calculation

          k = 0.0000 0.0000 0.0000 (211851 PWs)   bands (ev):

   -16.9267  -9.4811  -9.4811  -9.4811

     highest occupied level (ev):    -9.4811

!    total energy              =     -16.02842072 Ry
     estimated scf accuracy    <       0.00000087 Ry

     The total energy is the sum of the following terms:
     one-electron contribution =     -49.75526149 Ry
     hartree contribution      =      25.57622518 Ry
     xc contribution           =      -6.17590322 Ry
     ewald contribution        =      14.32651881 Ry

     convergence has been achieved in   9 iterations

     Forces acting on atoms (cartesian axes, Ry/au):

     atom    1 type  1   force =     0.00000636    0.00000000    0.00002546
     atom    2 type  2   force =     0.00000050    0.00000000    0.01220215
     atom    3 type  2   force =     0.01152943    0.00000000   -0.00407843
     atom    4 type  2   force =    -0.00576814   -0.00999112   -0.00407460
     atom    5 type  2   force =    -0.00576814    0.00999112   -0.00407460

     Total force =     0.024451     Total SCF correction =     0.000469


     Computing stress (Cartesian axis) and pressure

          total   stress  (Ry/bohr**3)                   (kbar)     P=       -0.07
  -0.00000044   0.00000000   0.00000000           -0.07        0.00        0.00
   0.00000000  -0.00000044   0.00000000            0.00       -0.07        0.00
   0.00000000   0.00000000  -0.00000044            0.00        0.00       -0.07

 
     init_run     :      2.49s CPU      3.30s WALL (       1 calls)
     electrons    :     27.42s CPU     28.07s WALL (       1 calls)
     forces       :      0.93s CPU      1.00s WALL (       1 calls)
     stress       :      0.86s CPU      1.11s WALL (       1 calls)

     Called by init_run:
     wfcinit      :      1.00s CPU      1.11s WALL (       1 calls)
     potinit      :      0.64s CPU      1.01s WALL (       1 calls)
     hinit0       :      0.33s CPU      0.56s WALL (       1 calls)

     Called by electrons:
     c_bands      :     14.04s CPU     14.08s WALL (       9 calls)
     sum_band     :      5.18s CPU      5.18s WALL (       9 calls)
     v_of_rho     :      3.74s CPU      3.97s WALL (      10 calls)
     mix_rho      :      4.12s CPU      4.56s WALL (       9 calls)

     Called by c_bands:
     init_us_2    :      0.11s CPU      0.11s WALL (      19 calls)
     init_us_2:cp :      0.11s CPU      0.11s WALL (      19 calls)
     regterg      :     13.97s CPU     14.01s WALL (       9 calls)

     Called by *egterg:
     rdiaghg      :      0.00s CPU      0.00s WALL (      30 calls)
     h_psi        :     14.14s CPU     14.22s WALL (      31 calls)
     g_psi        :      0.04s CPU      0.04s WALL (      21 calls)

     Called by h_psi:
     h_psi:calbec :      0.05s CPU      0.05s WALL (      31 calls)
     vloc_psi     :     13.96s CPU     14.02s WALL (      31 calls)
     add_vuspsi   :      0.06s CPU      0.06s WALL (      31 calls)

     General routines
     calbec       :      0.05s CPU      0.05s WALL (      36 calls)
     fft          :      2.91s CPU      2.91s WALL (      34 calls)
     ffts         :      0.81s CPU      0.81s WALL (       9 calls)
     fftw         :     13.10s CPU     13.10s WALL (     146 calls)
 
     Parallel routines
 
     PWSCF        :     31.72s CPU     33.54s WALL

 
   This run was terminated on:  11:22:50   2Jun2023            

=------------------------------------------------------------------------------=
   JOB DONE.
=------------------------------------------------------------------------------=
