
     Program PWSCF v.7.1 starts on  2Jun2023 at 11:21:35 

     This program is part of the open-source Quantum ESPRESSO suite
     for quantum simulation of materials; please cite
         "P. Giannozzi et al., J. Phys.:Condens. Matter 21 395502 (2009);
         "P. Giannozzi et al., J. Phys.:Condens. Matter 29 465901 (2017);
         "P. Giannozzi et al., J. Chem. Phys. 152 154105 (2020);
          URL http://www.quantum-espresso.org", 
     in publications or presentations arising from this work. More details at
     http://www.quantum-espresso.org/quote

     Parallel version (MPI), running on     1 processors

     MPI processes distributed on     1 nodes
     4947 MiB available memory on the printing compute node when the environment starts
 
     Waiting for input...
     Reading input from standard input

     Current dimensions of program PWSCF are:
     Max number of different atomic species (ntypx) = 10
     Max number of k-points (npk) =  40000
     Max angular momentum in pseudopotentials (lmaxx) =  4
     file H.pz-vbc.UPF: wavefunction(s)  1S renormalized

     gamma-point specific algorithms are used
 
     Subspace diagonalization in iterative solution of the eigenvalue problem:
     a serial algorithm will be used

 
     G-vector sticks info
     --------------------
     sticks:   dense  smooth     PW     G-vecs:    dense   smooth      PW
     Sum       18197   18197   4537              1845573  1845573  230389
 
     Using Slab Decomposition
 


     bravais-lattice index     =            1
     lattice parameter (alat)  =      37.7945  a.u.
     unit-cell volume          =   53986.6760 (a.u.)^3
     number of atoms/cell      =            5
     number of atomic types    =            2
     number of electrons       =         8.00
     number of Kohn-Sham states=            4
     kinetic-energy cutoff     =      40.0000  Ry
     charge density cutoff     =     160.0000  Ry
     scf convergence threshold =      1.0E-06
     mixing beta               =       0.7000
     number of iterations used =            8  plain     mixing
     Exchange-correlation=  SLA  PZ   NOGX NOGC
                           (   1   1   0   0   0   0   0)

     celldm(1)=  37.794522  celldm(2)=   0.000000  celldm(3)=   0.000000
     celldm(4)=   0.000000  celldm(5)=   0.000000  celldm(6)=   0.000000

     crystal axes: (cart. coord. in units of alat)
               a(1) = (   1.000000   0.000000   0.000000 )  
               a(2) = (   0.000000   1.000000   0.000000 )  
               a(3) = (   0.000000   0.000000   1.000000 )  

     reciprocal axes: (cart. coord. in units 2 pi/alat)
               b(1) = (  1.000000  0.000000  0.000000 )  
               b(2) = (  0.000000  1.000000  0.000000 )  
               b(3) = (  0.000000  0.000000  1.000000 )  


     PseudoPot. # 1 for C  read from file:
     ./C.pz-vbc.UPF
     MD5 check sum: ab53dd623bfeb79c5a7b057bc96eae20
     Pseudo is Norm-conserving, Zval =  4.0
     Generated by new atomic code, or converted to UPF format
     Using radial grid of  269 points,  1 beta functions with: 
                l(1) =   0

     PseudoPot. # 2 for H  read from file:
     ./H.pz-vbc.UPF
     MD5 check sum: 90becb985b714f09656c73597998d266
     Pseudo is Norm-conserving, Zval =  1.0
     Generated by new atomic code, or converted to UPF format
     Using radial grid of  131 points,  0 beta functions with: 

     atomic species   valence    mass     pseudopotential
        C              4.00    12.01100     C ( 1.00)
        H              1.00     1.00800     H ( 1.00)

      2 Sym. Ops. (no inversion) found



   Cartesian axes

     site n.     atom                  positions (alat units)
         1           C   tau(   1) = (   0.0000000   0.0000000   0.0000000  )
         2           H   tau(   2) = (   0.0000000   0.0000000   0.0544500  )
         3           H   tau(   3) = (   0.0513359   0.0000000  -0.0181500  )
         4           H   tau(   4) = (  -0.0256680  -0.0444582  -0.0181500  )
         5           H   tau(   5) = (  -0.0256680   0.0444582  -0.0181500  )

     number of k points=     1
                       cart. coord. in units 2pi/alat
        k(    1) = (   0.0000000   0.0000000   0.0000000), wk =   2.0000000

     Dense  grid:   922787 G-vectors     FFT dimensions: ( 160, 160, 160)

     Estimated max dynamical RAM per process >     730.08 MB

     Initial potential from superposition of free atoms

     starting charge       7.9999, renormalised to       8.0000

     negative rho (up, down):  2.369E-02 0.000E+00
     Starting wfcs are    8 randomized atomic wfcs

     total cpu time spent up to now is        1.7 secs

     Self-consistent Calculation

     iteration #  1     ecut=    40.00 Ry     beta= 0.70
     Davidson diagonalization with overlap
     ethr =  1.00E-02,  avg # of iterations =  2.0

     negative rho (up, down):  6.994E-03 0.000E+00

     total cpu time spent up to now is        3.4 secs

     total energy              =     -15.74390270 Ry
     estimated scf accuracy    <       0.72675174 Ry

     iteration #  2     ecut=    40.00 Ry     beta= 0.70
     Davidson diagonalization with overlap
     ethr =  9.08E-03,  avg # of iterations =  2.0

     negative rho (up, down):  3.616E-03 0.000E+00

     total cpu time spent up to now is        4.8 secs

     total energy              =     -15.93839433 Ry
     estimated scf accuracy    <       0.20669672 Ry

     iteration #  3     ecut=    40.00 Ry     beta= 0.70
     Davidson diagonalization with overlap
     ethr =  2.58E-03,  avg # of iterations =  2.0

     negative rho (up, down):  5.072E-04 0.000E+00

     total cpu time spent up to now is        6.3 secs

     total energy              =     -15.96566110 Ry
     estimated scf accuracy    <       0.00597066 Ry

     iteration #  4     ecut=    40.00 Ry     beta= 0.70
     Davidson diagonalization with overlap
     ethr =  7.46E-05,  avg # of iterations =  3.0

     negative rho (up, down):  4.721E-04 0.000E+00

     total cpu time spent up to now is        8.1 secs

     total energy              =     -15.96691753 Ry
     estimated scf accuracy    <       0.00549850 Ry

     iteration #  5     ecut=    40.00 Ry     beta= 0.70
     Davidson diagonalization with overlap
     ethr =  6.87E-05,  avg # of iterations =  2.0

     negative rho (up, down):  6.396E-07 0.000E+00

     total cpu time spent up to now is        9.6 secs

     total energy              =     -15.96802048 Ry
     estimated scf accuracy    <       0.00010592 Ry

     iteration #  6     ecut=    40.00 Ry     beta= 0.70
     Davidson diagonalization with overlap
     ethr =  1.32E-06,  avg # of iterations =  2.0

     negative rho (up, down):  1.399E-06 0.000E+00

     total cpu time spent up to now is       11.2 secs

     total energy              =     -15.96794330 Ry
     estimated scf accuracy    <       0.00020590 Ry

     iteration #  7     ecut=    40.00 Ry     beta= 0.70
     Davidson diagonalization with overlap
     ethr =  1.32E-06,  avg # of iterations =  2.0

     negative rho (up, down):  6.825E-08 0.000E+00

     total cpu time spent up to now is       12.8 secs

     total energy              =     -15.96796322 Ry
     estimated scf accuracy    <       0.00000478 Ry

     iteration #  8     ecut=    40.00 Ry     beta= 0.70
     Davidson diagonalization with overlap
     ethr =  5.97E-08,  avg # of iterations =  3.0

     total cpu time spent up to now is       14.7 secs

     total energy              =     -15.96796559 Ry
     estimated scf accuracy    <       0.00000343 Ry

     iteration #  9     ecut=    40.00 Ry     beta= 0.70
     Davidson diagonalization with overlap
     ethr =  4.29E-08,  avg # of iterations =  2.0

     total cpu time spent up to now is       16.1 secs

     End of self-consistent calculation

          k = 0.0000 0.0000 0.0000 (115195 PWs)   bands (ev):

   -16.9896  -9.4591  -9.4591  -9.4590

     highest occupied level (ev):    -9.4590

!    total energy              =     -15.96796606 Ry
     estimated scf accuracy    <       0.00000002 Ry

     The total energy is the sum of the following terms:
     one-electron contribution =     -49.64634149 Ry
     hartree contribution      =      25.51724617 Ry
     xc contribution           =      -6.16538953 Ry
     ewald contribution        =      14.32651879 Ry

     convergence has been achieved in   9 iterations

     Forces acting on atoms (cartesian axes, Ry/au):

     atom    1 type  1   force =    -0.00005831    0.00000000    0.00009679
     atom    2 type  2   force =     0.00000291    0.00000000    0.01234131
     atom    3 type  2   force =     0.01167347    0.00000000   -0.00417252
     atom    4 type  2   force =    -0.00580904   -0.01012974   -0.00413279
     atom    5 type  2   force =    -0.00580904    0.01012974   -0.00413279

     Total force =     0.024756     Total SCF correction =     0.000077


     Computing stress (Cartesian axis) and pressure

          total   stress  (Ry/bohr**3)                   (kbar)     P=       -0.32
  -0.00000216   0.00000000   0.00000000           -0.32        0.00        0.00
   0.00000000  -0.00000216   0.00000000            0.00       -0.32        0.00
   0.00000000   0.00000000  -0.00000216            0.00        0.00       -0.32

 
     init_run     :      1.29s CPU      1.72s WALL (       1 calls)
     electrons    :     14.05s CPU     14.38s WALL (       1 calls)
     forces       :      0.47s CPU      0.51s WALL (       1 calls)
     stress       :      0.45s CPU      0.52s WALL (       1 calls)

     Called by init_run:
     wfcinit      :      0.51s CPU      0.56s WALL (       1 calls)
     potinit      :      0.34s CPU      0.55s WALL (       1 calls)
     hinit0       :      0.17s CPU      0.30s WALL (       1 calls)

     Called by electrons:
     c_bands      :      7.05s CPU      7.06s WALL (       9 calls)
     sum_band     :      2.64s CPU      2.64s WALL (       9 calls)
     v_of_rho     :      2.09s CPU      2.24s WALL (      10 calls)
     mix_rho      :      2.07s CPU      2.30s WALL (       9 calls)

     Called by c_bands:
     init_us_2    :      0.06s CPU      0.06s WALL (      19 calls)
     init_us_2:cp :      0.06s CPU      0.06s WALL (      19 calls)
     regterg      :      7.01s CPU      7.02s WALL (       9 calls)

     Called by *egterg:
     rdiaghg      :      0.00s CPU      0.00s WALL (      29 calls)
     h_psi        :      7.14s CPU      7.18s WALL (      30 calls)
     g_psi        :      0.02s CPU      0.02s WALL (      20 calls)

     Called by h_psi:
     h_psi:calbec :      0.02s CPU      0.02s WALL (      30 calls)
     vloc_psi     :      7.05s CPU      7.09s WALL (      30 calls)
     add_vuspsi   :      0.03s CPU      0.03s WALL (      30 calls)

     General routines
     calbec       :      0.03s CPU      0.03s WALL (      35 calls)
     fft          :      1.57s CPU      1.58s WALL (      34 calls)
     ffts         :      0.42s CPU      0.42s WALL (       9 calls)
     fftw         :      6.64s CPU      6.64s WALL (     142 calls)
 
     Parallel routines
 
     PWSCF        :     16.28s CPU     17.18s WALL

 
   This run was terminated on:  11:21:52   2Jun2023            

=------------------------------------------------------------------------------=
   JOB DONE.
=------------------------------------------------------------------------------=
