
     Program PWSCF v.7.1 starts on  2Jun2023 at 11:21:24 

     This program is part of the open-source Quantum ESPRESSO suite
     for quantum simulation of materials; please cite
         "P. Giannozzi et al., J. Phys.:Condens. Matter 21 395502 (2009);
         "P. Giannozzi et al., J. Phys.:Condens. Matter 29 465901 (2017);
         "P. Giannozzi et al., J. Chem. Phys. 152 154105 (2020);
          URL http://www.quantum-espresso.org", 
     in publications or presentations arising from this work. More details at
     http://www.quantum-espresso.org/quote

     Parallel version (MPI), running on     1 processors

     MPI processes distributed on     1 nodes
     4947 MiB available memory on the printing compute node when the environment starts
 
     Waiting for input...
     Reading input from standard input

     Current dimensions of program PWSCF are:
     Max number of different atomic species (ntypx) = 10
     Max number of k-points (npk) =  40000
     Max angular momentum in pseudopotentials (lmaxx) =  4
     file H.pz-vbc.UPF: wavefunction(s)  1S renormalized

     gamma-point specific algorithms are used
 
     Subspace diagonalization in iterative solution of the eigenvalue problem:
     a serial algorithm will be used

 
     G-vector sticks info
     --------------------
     sticks:   dense  smooth     PW     G-vecs:    dense   smooth      PW
     Sum       13637   13637   3397              1198487  1198487  149781
 
     Using Slab Decomposition
 


     bravais-lattice index     =            1
     lattice parameter (alat)  =      37.7945  a.u.
     unit-cell volume          =   53986.6760 (a.u.)^3
     number of atoms/cell      =            5
     number of atomic types    =            2
     number of electrons       =         8.00
     number of Kohn-Sham states=            4
     kinetic-energy cutoff     =      30.0000  Ry
     charge density cutoff     =     120.0000  Ry
     scf convergence threshold =      1.0E-06
     mixing beta               =       0.7000
     number of iterations used =            8  plain     mixing
     Exchange-correlation=  SLA  PZ   NOGX NOGC
                           (   1   1   0   0   0   0   0)

     celldm(1)=  37.794522  celldm(2)=   0.000000  celldm(3)=   0.000000
     celldm(4)=   0.000000  celldm(5)=   0.000000  celldm(6)=   0.000000

     crystal axes: (cart. coord. in units of alat)
               a(1) = (   1.000000   0.000000   0.000000 )  
               a(2) = (   0.000000   1.000000   0.000000 )  
               a(3) = (   0.000000   0.000000   1.000000 )  

     reciprocal axes: (cart. coord. in units 2 pi/alat)
               b(1) = (  1.000000  0.000000  0.000000 )  
               b(2) = (  0.000000  1.000000  0.000000 )  
               b(3) = (  0.000000  0.000000  1.000000 )  


     PseudoPot. # 1 for C  read from file:
     ./C.pz-vbc.UPF
     MD5 check sum: ab53dd623bfeb79c5a7b057bc96eae20
     Pseudo is Norm-conserving, Zval =  4.0
     Generated by new atomic code, or converted to UPF format
     Using radial grid of  269 points,  1 beta functions with: 
                l(1) =   0

     PseudoPot. # 2 for H  read from file:
     ./H.pz-vbc.UPF
     MD5 check sum: 90becb985b714f09656c73597998d266
     Pseudo is Norm-conserving, Zval =  1.0
     Generated by new atomic code, or converted to UPF format
     Using radial grid of  131 points,  0 beta functions with: 

     atomic species   valence    mass     pseudopotential
        C              4.00    12.01100     C ( 1.00)
        H              1.00     1.00800     H ( 1.00)

      2 Sym. Ops. (no inversion) found



   Cartesian axes

     site n.     atom                  positions (alat units)
         1           C   tau(   1) = (   0.0000000   0.0000000   0.0000000  )
         2           H   tau(   2) = (   0.0000000   0.0000000   0.0544500  )
         3           H   tau(   3) = (   0.0513359   0.0000000  -0.0181500  )
         4           H   tau(   4) = (  -0.0256680  -0.0444582  -0.0181500  )
         5           H   tau(   5) = (  -0.0256680   0.0444582  -0.0181500  )

     number of k points=     1
                       cart. coord. in units 2pi/alat
        k(    1) = (   0.0000000   0.0000000   0.0000000), wk =   2.0000000

     Dense  grid:   599244 G-vectors     FFT dimensions: ( 135, 135, 135)

     Estimated max dynamical RAM per process >     460.41 MB

     Initial potential from superposition of free atoms

     starting charge       7.9999, renormalised to       8.0000

     negative rho (up, down):  4.378E-02 0.000E+00
     Starting wfcs are    8 randomized atomic wfcs

     total cpu time spent up to now is        1.0 secs

     Self-consistent Calculation

     iteration #  1     ecut=    30.00 Ry     beta= 0.70
     Davidson diagonalization with overlap
     ethr =  1.00E-02,  avg # of iterations =  2.0

     negative rho (up, down):  1.294E-02 0.000E+00

     total cpu time spent up to now is        2.0 secs

     total energy              =     -15.67994336 Ry
     estimated scf accuracy    <       0.65428794 Ry

     iteration #  2     ecut=    30.00 Ry     beta= 0.70
     Davidson diagonalization with overlap
     ethr =  8.18E-03,  avg # of iterations =  2.0

     negative rho (up, down):  6.592E-03 0.000E+00

     total cpu time spent up to now is        2.8 secs

     total energy              =     -15.84776114 Ry
     estimated scf accuracy    <       0.17183240 Ry

     iteration #  3     ecut=    30.00 Ry     beta= 0.70
     Davidson diagonalization with overlap
     ethr =  2.15E-03,  avg # of iterations =  2.0

     negative rho (up, down):  5.851E-04 0.000E+00

     total cpu time spent up to now is        3.7 secs

     total energy              =     -15.87155845 Ry
     estimated scf accuracy    <       0.00463049 Ry

     iteration #  4     ecut=    30.00 Ry     beta= 0.70
     Davidson diagonalization with overlap
     ethr =  5.79E-05,  avg # of iterations =  2.0

     negative rho (up, down):  6.207E-04 0.000E+00

     total cpu time spent up to now is        4.7 secs

     total energy              =     -15.87283528 Ry
     estimated scf accuracy    <       0.00245327 Ry

     iteration #  5     ecut=    30.00 Ry     beta= 0.70
     Davidson diagonalization with overlap
     ethr =  3.07E-05,  avg # of iterations =  2.0

     negative rho (up, down):  1.629E-04 0.000E+00

     total cpu time spent up to now is        5.5 secs

     total energy              =     -15.87308702 Ry
     estimated scf accuracy    <       0.00002325 Ry

     iteration #  6     ecut=    30.00 Ry     beta= 0.70
     Davidson diagonalization with overlap
     ethr =  2.91E-07,  avg # of iterations =  4.0

     total cpu time spent up to now is        6.7 secs

     total energy              =     -15.87302513 Ry
     estimated scf accuracy    <       0.00048694 Ry

     iteration #  7     ecut=    30.00 Ry     beta= 0.70
     Davidson diagonalization with overlap
     ethr =  2.91E-07,  avg # of iterations =  3.0

     negative rho (up, down):  6.772E-08 0.000E+00

     total cpu time spent up to now is        7.9 secs

     total energy              =     -15.87309245 Ry
     estimated scf accuracy    <       0.00000326 Ry

     iteration #  8     ecut=    30.00 Ry     beta= 0.70
     Davidson diagonalization with overlap
     ethr =  4.07E-08,  avg # of iterations =  1.0

     negative rho (up, down):  2.269E-08 0.000E+00

     total cpu time spent up to now is        8.7 secs

     total energy              =     -15.87309145 Ry
     estimated scf accuracy    <       0.00000287 Ry

     iteration #  9     ecut=    30.00 Ry     beta= 0.70
     Davidson diagonalization with overlap
     ethr =  3.59E-08,  avg # of iterations =  2.0

     total cpu time spent up to now is        9.5 secs

     End of self-consistent calculation

          k = 0.0000 0.0000 0.0000 ( 74891 PWs)   bands (ev):

   -17.0429  -9.4440  -9.4439  -9.4437

     highest occupied level (ev):    -9.4437

!    total energy              =     -15.87309170 Ry
     estimated scf accuracy    <       0.00000017 Ry

     The total energy is the sum of the following terms:
     one-electron contribution =     -49.46552482 Ry
     hartree contribution      =      25.41305187 Ry
     xc contribution           =      -6.14713754 Ry
     ewald contribution        =      14.32651878 Ry

     convergence has been achieved in   9 iterations

     Forces acting on atoms (cartesian axes, Ry/au):

     atom    1 type  1   force =    -0.00005576    0.00000000    0.00017637
     atom    2 type  2   force =     0.00000281    0.00000000    0.03569815
     atom    3 type  2   force =     0.03378252    0.00000000   -0.01192343
     atom    4 type  2   force =    -0.01686479   -0.02922222   -0.01197554
     atom    5 type  2   force =    -0.01686479    0.02922222   -0.01197554

     Total force =     0.071564     Total SCF correction =     0.000211


     Computing stress (Cartesian axis) and pressure

          total   stress  (Ry/bohr**3)                   (kbar)     P=       -0.58
  -0.00000395   0.00000000   0.00000000           -0.58        0.00        0.00
   0.00000000  -0.00000395   0.00000000            0.00       -0.58        0.00
   0.00000000   0.00000000  -0.00000395            0.00        0.00       -0.58

 
     init_run     :      0.76s CPU      1.01s WALL (       1 calls)
     electrons    :      8.28s CPU      8.49s WALL (       1 calls)
     forces       :      0.28s CPU      0.30s WALL (       1 calls)
     stress       :      0.27s CPU      0.31s WALL (       1 calls)

     Called by init_run:
     wfcinit      :      0.29s CPU      0.32s WALL (       1 calls)
     potinit      :      0.20s CPU      0.32s WALL (       1 calls)
     hinit0       :      0.11s CPU      0.19s WALL (       1 calls)

     Called by electrons:
     c_bands      :      4.00s CPU      4.01s WALL (       9 calls)
     sum_band     :      1.54s CPU      1.55s WALL (       9 calls)
     v_of_rho     :      1.30s CPU      1.39s WALL (      10 calls)
     mix_rho      :      1.30s CPU      1.45s WALL (       9 calls)

     Called by c_bands:
     init_us_2    :      0.04s CPU      0.04s WALL (      19 calls)
     init_us_2:cp :      0.04s CPU      0.04s WALL (      19 calls)
     regterg      :      3.97s CPU      3.98s WALL (       9 calls)

     Called by *egterg:
     rdiaghg      :      0.00s CPU      0.00s WALL (      29 calls)
     h_psi        :      4.03s CPU      4.05s WALL (      30 calls)
     g_psi        :      0.02s CPU      0.02s WALL (      20 calls)

     Called by h_psi:
     h_psi:calbec :      0.02s CPU      0.02s WALL (      30 calls)
     vloc_psi     :      3.97s CPU      3.99s WALL (      30 calls)
     add_vuspsi   :      0.02s CPU      0.02s WALL (      30 calls)

     General routines
     calbec       :      0.02s CPU      0.02s WALL (      35 calls)
     fft          :      0.97s CPU      0.97s WALL (      34 calls)
     ffts         :      0.24s CPU      0.24s WALL (       9 calls)
     fftw         :      3.82s CPU      3.82s WALL (     140 calls)
 
     Parallel routines
 
     PWSCF        :      9.60s CPU     10.16s WALL

 
   This run was terminated on:  11:21:34   2Jun2023            

=------------------------------------------------------------------------------=
   JOB DONE.
=------------------------------------------------------------------------------=
