
     Program PWSCF v.7.1 starts on  2Jun2023 at 11:21:53 

     This program is part of the open-source Quantum ESPRESSO suite
     for quantum simulation of materials; please cite
         "P. Giannozzi et al., J. Phys.:Condens. Matter 21 395502 (2009);
         "P. Giannozzi et al., J. Phys.:Condens. Matter 29 465901 (2017);
         "P. Giannozzi et al., J. Chem. Phys. 152 154105 (2020);
          URL http://www.quantum-espresso.org", 
     in publications or presentations arising from this work. More details at
     http://www.quantum-espresso.org/quote

     Parallel version (MPI), running on     1 processors

     MPI processes distributed on     1 nodes
     4949 MiB available memory on the printing compute node when the environment starts
 
     Waiting for input...
     Reading input from standard input

     Current dimensions of program PWSCF are:
     Max number of different atomic species (ntypx) = 10
     Max number of k-points (npk) =  40000
     Max angular momentum in pseudopotentials (lmaxx) =  4
     file H.pz-vbc.UPF: wavefunction(s)  1S renormalized

     gamma-point specific algorithms are used
 
     Subspace diagonalization in iterative solution of the eigenvalue problem:
     a serial algorithm will be used

 
     G-vector sticks info
     --------------------
     sticks:   dense  smooth     PW     G-vecs:    dense   smooth      PW
     Sum       22733   22733   5689              2578383  2578383  322453
 
     Using Slab Decomposition
 


     bravais-lattice index     =            1
     lattice parameter (alat)  =      37.7945  a.u.
     unit-cell volume          =   53986.6760 (a.u.)^3
     number of atoms/cell      =            5
     number of atomic types    =            2
     number of electrons       =         8.00
     number of Kohn-Sham states=            4
     kinetic-energy cutoff     =      50.0000  Ry
     charge density cutoff     =     200.0000  Ry
     scf convergence threshold =      1.0E-06
     mixing beta               =       0.7000
     number of iterations used =            8  plain     mixing
     Exchange-correlation=  SLA  PZ   NOGX NOGC
                           (   1   1   0   0   0   0   0)

     celldm(1)=  37.794522  celldm(2)=   0.000000  celldm(3)=   0.000000
     celldm(4)=   0.000000  celldm(5)=   0.000000  celldm(6)=   0.000000

     crystal axes: (cart. coord. in units of alat)
               a(1) = (   1.000000   0.000000   0.000000 )  
               a(2) = (   0.000000   1.000000   0.000000 )  
               a(3) = (   0.000000   0.000000   1.000000 )  

     reciprocal axes: (cart. coord. in units 2 pi/alat)
               b(1) = (  1.000000  0.000000  0.000000 )  
               b(2) = (  0.000000  1.000000  0.000000 )  
               b(3) = (  0.000000  0.000000  1.000000 )  


     PseudoPot. # 1 for C  read from file:
     ./C.pz-vbc.UPF
     MD5 check sum: ab53dd623bfeb79c5a7b057bc96eae20
     Pseudo is Norm-conserving, Zval =  4.0
     Generated by new atomic code, or converted to UPF format
     Using radial grid of  269 points,  1 beta functions with: 
                l(1) =   0

     PseudoPot. # 2 for H  read from file:
     ./H.pz-vbc.UPF
     MD5 check sum: 90becb985b714f09656c73597998d266
     Pseudo is Norm-conserving, Zval =  1.0
     Generated by new atomic code, or converted to UPF format
     Using radial grid of  131 points,  0 beta functions with: 

     atomic species   valence    mass     pseudopotential
        C              4.00    12.01100     C ( 1.00)
        H              1.00     1.00800     H ( 1.00)

      2 Sym. Ops. (no inversion) found



   Cartesian axes

     site n.     atom                  positions (alat units)
         1           C   tau(   1) = (   0.0000000   0.0000000   0.0000000  )
         2           H   tau(   2) = (   0.0000000   0.0000000   0.0544500  )
         3           H   tau(   3) = (   0.0513359   0.0000000  -0.0181500  )
         4           H   tau(   4) = (  -0.0256680  -0.0444582  -0.0181500  )
         5           H   tau(   5) = (  -0.0256680   0.0444582  -0.0181500  )

     number of k points=     1
                       cart. coord. in units 2pi/alat
        k(    1) = (   0.0000000   0.0000000   0.0000000), wk =   2.0000000

     Dense  grid:  1289192 G-vectors     FFT dimensions: ( 180, 180, 180)

     Estimated max dynamical RAM per process >       1.00 GB

     Initial potential from superposition of free atoms

     starting charge       7.9999, renormalised to       8.0000

     negative rho (up, down):  2.284E-02 0.000E+00
     Starting wfcs are    8 randomized atomic wfcs

     total cpu time spent up to now is        2.4 secs

     Self-consistent Calculation

     iteration #  1     ecut=    50.00 Ry     beta= 0.70
     Davidson diagonalization with overlap
     ethr =  1.00E-02,  avg # of iterations =  2.0

     negative rho (up, down):  6.759E-03 0.000E+00

     total cpu time spent up to now is        4.6 secs

     total energy              =     -15.77187262 Ry
     estimated scf accuracy    <       0.75504579 Ry

     iteration #  2     ecut=    50.00 Ry     beta= 0.70
     Davidson diagonalization with overlap
     ethr =  9.44E-03,  avg # of iterations =  2.0

     negative rho (up, down):  3.485E-03 0.000E+00

     total cpu time spent up to now is        6.6 secs

     total energy              =     -15.97698586 Ry
     estimated scf accuracy    <       0.22092932 Ry

     iteration #  3     ecut=    50.00 Ry     beta= 0.70
     Davidson diagonalization with overlap
     ethr =  2.76E-03,  avg # of iterations =  2.0

     negative rho (up, down):  5.945E-04 0.000E+00

     total cpu time spent up to now is        8.6 secs

     total energy              =     -16.00534236 Ry
     estimated scf accuracy    <       0.00681099 Ry

     iteration #  4     ecut=    50.00 Ry     beta= 0.70
     Davidson diagonalization with overlap
     ethr =  8.51E-05,  avg # of iterations =  3.0

     negative rho (up, down):  4.080E-04 0.000E+00

     total cpu time spent up to now is       11.0 secs

     total energy              =     -16.00688929 Ry
     estimated scf accuracy    <       0.00724023 Ry

     iteration #  5     ecut=    50.00 Ry     beta= 0.70
     Davidson diagonalization with overlap
     ethr =  8.51E-05,  avg # of iterations =  2.0

     negative rho (up, down):  4.534E-05 0.000E+00

     total cpu time spent up to now is       13.1 secs

     total energy              =     -16.00817193 Ry
     estimated scf accuracy    <       0.00002370 Ry

     iteration #  6     ecut=    50.00 Ry     beta= 0.70
     Davidson diagonalization with overlap
     ethr =  2.96E-07,  avg # of iterations =  4.0

     negative rho (up, down):  2.041E-06 0.000E+00

     total cpu time spent up to now is       15.9 secs

     total energy              =     -16.00807239 Ry
     estimated scf accuracy    <       0.00041152 Ry

     iteration #  7     ecut=    50.00 Ry     beta= 0.70
     Davidson diagonalization with overlap
     ethr =  2.96E-07,  avg # of iterations =  3.0

     negative rho (up, down):  5.577E-08 0.000E+00

     total cpu time spent up to now is       18.4 secs

     total energy              =     -16.00812890 Ry
     estimated scf accuracy    <       0.00000402 Ry

     iteration #  8     ecut=    50.00 Ry     beta= 0.70
     Davidson diagonalization with overlap
     ethr =  5.03E-08,  avg # of iterations =  1.0

     negative rho (up, down):  1.778E-07 0.000E+00

     total cpu time spent up to now is       20.3 secs

     total energy              =     -16.00812858 Ry
     estimated scf accuracy    <       0.00000148 Ry

     iteration #  9     ecut=    50.00 Ry     beta= 0.70
     Davidson diagonalization with overlap
     ethr =  1.85E-08,  avg # of iterations =  2.0

     total cpu time spent up to now is       22.0 secs

     End of self-consistent calculation

          k = 0.0000 0.0000 0.0000 (161227 PWs)   bands (ev):

   -16.9509  -9.4716  -9.4716  -9.4716

     highest occupied level (ev):    -9.4716

!    total energy              =     -16.00812843 Ry
     estimated scf accuracy    <       0.00000042 Ry

     The total energy is the sum of the following terms:
     one-electron contribution =     -49.71892108 Ry
     hartree contribution      =      25.55657842 Ry
     xc contribution           =      -6.17230457 Ry
     ewald contribution        =      14.32651879 Ry

     convergence has been achieved in   9 iterations

     Forces acting on atoms (cartesian axes, Ry/au):

     atom    1 type  1   force =     0.00000943    0.00000000    0.00005414
     atom    2 type  2   force =     0.00000152    0.00000000    0.01268128
     atom    3 type  2   force =     0.01201931    0.00000000   -0.00423954
     atom    4 type  2   force =    -0.00601513   -0.01040352   -0.00424794
     atom    5 type  2   force =    -0.00601513    0.01040352   -0.00424794

     Total force =     0.025459     Total SCF correction =     0.000339


     Computing stress (Cartesian axis) and pressure

          total   stress  (Ry/bohr**3)                   (kbar)     P=       -0.16
  -0.00000110   0.00000000   0.00000000           -0.16        0.00        0.00
   0.00000000  -0.00000110   0.00000000            0.00       -0.16        0.00
   0.00000000   0.00000000  -0.00000110            0.00        0.00       -0.16

 
     init_run     :      1.77s CPU      2.40s WALL (       1 calls)
     electrons    :     19.19s CPU     19.68s WALL (       1 calls)
     forces       :      0.67s CPU      0.73s WALL (       1 calls)
     stress       :      0.61s CPU      0.79s WALL (       1 calls)

     Called by init_run:
     wfcinit      :      0.67s CPU      0.74s WALL (       1 calls)
     potinit      :      0.48s CPU      0.78s WALL (       1 calls)
     hinit0       :      0.23s CPU      0.42s WALL (       1 calls)

     Called by electrons:
     c_bands      :      9.39s CPU      9.42s WALL (       9 calls)
     sum_band     :      3.59s CPU      3.59s WALL (       9 calls)
     v_of_rho     :      2.93s CPU      3.12s WALL (      10 calls)
     mix_rho      :      2.99s CPU      3.32s WALL (       9 calls)

     Called by c_bands:
     init_us_2    :      0.08s CPU      0.08s WALL (      19 calls)
     init_us_2:cp :      0.08s CPU      0.08s WALL (      19 calls)
     regterg      :      9.34s CPU      9.36s WALL (       9 calls)

     Called by *egterg:
     rdiaghg      :      0.00s CPU      0.00s WALL (      30 calls)
     h_psi        :      9.42s CPU      9.48s WALL (      31 calls)
     g_psi        :      0.03s CPU      0.03s WALL (      21 calls)

     Called by h_psi:
     h_psi:calbec :      0.04s CPU      0.04s WALL (      31 calls)
     vloc_psi     :      9.29s CPU      9.34s WALL (      31 calls)
     add_vuspsi   :      0.04s CPU      0.04s WALL (      31 calls)

     General routines
     calbec       :      0.04s CPU      0.04s WALL (      36 calls)
     fft          :      1.95s CPU      1.96s WALL (      34 calls)
     ffts         :      0.52s CPU      0.52s WALL (       9 calls)
     fftw         :      8.47s CPU      8.47s WALL (     146 calls)
 
     Parallel routines
 
     PWSCF        :     22.25s CPU     23.65s WALL

 
   This run was terminated on:  11:22:16   2Jun2023            

=------------------------------------------------------------------------------=
   JOB DONE.
=------------------------------------------------------------------------------=
