
     Program PWSCF v.7.1 starts on  2Jun2023 at 11:21:17 

     This program is part of the open-source Quantum ESPRESSO suite
     for quantum simulation of materials; please cite
         "P. Giannozzi et al., J. Phys.:Condens. Matter 21 395502 (2009);
         "P. Giannozzi et al., J. Phys.:Condens. Matter 29 465901 (2017);
         "P. Giannozzi et al., J. Chem. Phys. 152 154105 (2020);
          URL http://www.quantum-espresso.org", 
     in publications or presentations arising from this work. More details at
     http://www.quantum-espresso.org/quote

     Parallel version (MPI), running on     1 processors

     MPI processes distributed on     1 nodes
     4947 MiB available memory on the printing compute node when the environment starts
 
     Waiting for input...
     Reading input from standard input

     Current dimensions of program PWSCF are:
     Max number of different atomic species (ntypx) = 10
     Max number of k-points (npk) =  40000
     Max angular momentum in pseudopotentials (lmaxx) =  4
     file H.pz-vbc.UPF: wavefunction(s)  1S renormalized

     gamma-point specific algorithms are used
 
     Subspace diagonalization in iterative solution of the eigenvalue problem:
     a serial algorithm will be used

 
     G-vector sticks info
     --------------------
     sticks:   dense  smooth     PW     G-vecs:    dense   smooth      PW
     Sum        9085    9085   2253               652671   652671   81313
 
     Using Slab Decomposition
 


     bravais-lattice index     =            1
     lattice parameter (alat)  =      37.7945  a.u.
     unit-cell volume          =   53986.6760 (a.u.)^3
     number of atoms/cell      =            5
     number of atomic types    =            2
     number of electrons       =         8.00
     number of Kohn-Sham states=            4
     kinetic-energy cutoff     =      20.0000  Ry
     charge density cutoff     =      80.0000  Ry
     scf convergence threshold =      1.0E-06
     mixing beta               =       0.7000
     number of iterations used =            8  plain     mixing
     Exchange-correlation=  SLA  PZ   NOGX NOGC
                           (   1   1   0   0   0   0   0)

     celldm(1)=  37.794522  celldm(2)=   0.000000  celldm(3)=   0.000000
     celldm(4)=   0.000000  celldm(5)=   0.000000  celldm(6)=   0.000000

     crystal axes: (cart. coord. in units of alat)
               a(1) = (   1.000000   0.000000   0.000000 )  
               a(2) = (   0.000000   1.000000   0.000000 )  
               a(3) = (   0.000000   0.000000   1.000000 )  

     reciprocal axes: (cart. coord. in units 2 pi/alat)
               b(1) = (  1.000000  0.000000  0.000000 )  
               b(2) = (  0.000000  1.000000  0.000000 )  
               b(3) = (  0.000000  0.000000  1.000000 )  


     PseudoPot. # 1 for C  read from file:
     ./C.pz-vbc.UPF
     MD5 check sum: ab53dd623bfeb79c5a7b057bc96eae20
     Pseudo is Norm-conserving, Zval =  4.0
     Generated by new atomic code, or converted to UPF format
     Using radial grid of  269 points,  1 beta functions with: 
                l(1) =   0

     PseudoPot. # 2 for H  read from file:
     ./H.pz-vbc.UPF
     MD5 check sum: 90becb985b714f09656c73597998d266
     Pseudo is Norm-conserving, Zval =  1.0
     Generated by new atomic code, or converted to UPF format
     Using radial grid of  131 points,  0 beta functions with: 

     atomic species   valence    mass     pseudopotential
        C              4.00    12.01100     C ( 1.00)
        H              1.00     1.00800     H ( 1.00)

      2 Sym. Ops. (no inversion) found



   Cartesian axes

     site n.     atom                  positions (alat units)
         1           C   tau(   1) = (   0.0000000   0.0000000   0.0000000  )
         2           H   tau(   2) = (   0.0000000   0.0000000   0.0544500  )
         3           H   tau(   3) = (   0.0513359   0.0000000  -0.0181500  )
         4           H   tau(   4) = (  -0.0256680  -0.0444582  -0.0181500  )
         5           H   tau(   5) = (  -0.0256680   0.0444582  -0.0181500  )

     number of k points=     1
                       cart. coord. in units 2pi/alat
        k(    1) = (   0.0000000   0.0000000   0.0000000), wk =   2.0000000

     Dense  grid:   326336 G-vectors     FFT dimensions: ( 108, 108, 108)

     Estimated max dynamical RAM per process >     245.23 MB

     Initial potential from superposition of free atoms

     starting charge       7.9999, renormalised to       8.0000

     negative rho (up, down):  1.188E-01 0.000E+00
     Starting wfcs are    8 randomized atomic wfcs

     total cpu time spent up to now is        0.5 secs

     Self-consistent Calculation

     iteration #  1     ecut=    20.00 Ry     beta= 0.70
     Davidson diagonalization with overlap
     ethr =  1.00E-02,  avg # of iterations =  2.0

     negative rho (up, down):  3.511E-02 0.000E+00

     total cpu time spent up to now is        0.8 secs

     total energy              =     -15.46625255 Ry
     estimated scf accuracy    <       0.48978154 Ry

     iteration #  2     ecut=    20.00 Ry     beta= 0.70
     Davidson diagonalization with overlap
     ethr =  6.12E-03,  avg # of iterations =  2.0

     negative rho (up, down):  1.699E-02 0.000E+00

     total cpu time spent up to now is        1.2 secs

     total energy              =     -15.57508998 Ry
     estimated scf accuracy    <       0.10070593 Ry

     iteration #  3     ecut=    20.00 Ry     beta= 0.70
     Davidson diagonalization with overlap
     ethr =  1.26E-03,  avg # of iterations =  2.0

     negative rho (up, down):  1.395E-04 0.000E+00

     total cpu time spent up to now is        1.5 secs

     total energy              =     -15.59019730 Ry
     estimated scf accuracy    <       0.00283363 Ry

     iteration #  4     ecut=    20.00 Ry     beta= 0.70
     Davidson diagonalization with overlap
     ethr =  3.54E-05,  avg # of iterations =  2.0

     negative rho (up, down):  2.104E-04 0.000E+00

     total cpu time spent up to now is        1.9 secs

     total energy              =     -15.59087000 Ry
     estimated scf accuracy    <       0.00061187 Ry

     iteration #  5     ecut=    20.00 Ry     beta= 0.70
     Davidson diagonalization with overlap
     ethr =  7.65E-06,  avg # of iterations =  1.0

     negative rho (up, down):  5.338E-05 0.000E+00

     total cpu time spent up to now is        2.2 secs

     total energy              =     -15.59071352 Ry
     estimated scf accuracy    <       0.00025722 Ry

     iteration #  6     ecut=    20.00 Ry     beta= 0.70
     Davidson diagonalization with overlap
     ethr =  3.22E-06,  avg # of iterations =  2.0

     negative rho (up, down):  1.513E-07 0.000E+00

     total cpu time spent up to now is        2.5 secs

     total energy              =     -15.59075254 Ry
     estimated scf accuracy    <       0.00041193 Ry

     iteration #  7     ecut=    20.00 Ry     beta= 0.70
     Davidson diagonalization with overlap
     ethr =  3.22E-06,  avg # of iterations =  2.0

     negative rho (up, down):  1.489E-07 0.000E+00

     total cpu time spent up to now is        2.9 secs

     total energy              =     -15.59079658 Ry
     estimated scf accuracy    <       0.00001934 Ry

     iteration #  8     ecut=    20.00 Ry     beta= 0.70
     Davidson diagonalization with overlap
     ethr =  2.42E-07,  avg # of iterations =  1.0

     negative rho (up, down):  8.201E-08 0.000E+00

     total cpu time spent up to now is        3.2 secs

     total energy              =     -15.59079292 Ry
     estimated scf accuracy    <       0.00001802 Ry

     iteration #  9     ecut=    20.00 Ry     beta= 0.70
     Davidson diagonalization with overlap
     ethr =  2.25E-07,  avg # of iterations =  1.0

     negative rho (up, down):  2.488E-08 0.000E+00

     total cpu time spent up to now is        3.6 secs

     total energy              =     -15.59078970 Ry
     estimated scf accuracy    <       0.00000699 Ry

     iteration # 10     ecut=    20.00 Ry     beta= 0.70
     Davidson diagonalization with overlap
     ethr =  8.74E-08,  avg # of iterations =  1.0

     total cpu time spent up to now is        3.9 secs

     total energy              =     -15.59079089 Ry
     estimated scf accuracy    <       0.00000120 Ry

     iteration # 11     ecut=    20.00 Ry     beta= 0.70
     Davidson diagonalization with overlap
     ethr =  1.51E-08,  avg # of iterations =  1.0

     total cpu time spent up to now is        4.3 secs

     total energy              =     -15.59079350 Ry
     estimated scf accuracy    <       0.00000268 Ry

     iteration # 12     ecut=    20.00 Ry     beta= 0.70
     Davidson diagonalization with overlap
     ethr =  1.51E-08,  avg # of iterations =  2.0

     total cpu time spent up to now is        4.7 secs

     total energy              =     -15.59079486 Ry
     estimated scf accuracy    <       0.00000728 Ry

     iteration # 13     ecut=    20.00 Ry     beta= 0.70
     Davidson diagonalization with overlap
     ethr =  1.51E-08,  avg # of iterations =  1.0

     total cpu time spent up to now is        5.0 secs

     total energy              =     -15.59079034 Ry
     estimated scf accuracy    <       0.00001110 Ry

     iteration # 14     ecut=    20.00 Ry     beta= 0.70
     Davidson diagonalization with overlap
     ethr =  1.51E-08,  avg # of iterations =  2.0

     total cpu time spent up to now is        5.4 secs

     total energy              =     -15.59079066 Ry
     estimated scf accuracy    <       0.00000280 Ry

     iteration # 15     ecut=    20.00 Ry     beta= 0.70
     Davidson diagonalization with overlap
     ethr =  1.51E-08,  avg # of iterations =  1.0

     total cpu time spent up to now is        5.8 secs

     total energy              =     -15.59079011 Ry
     estimated scf accuracy    <       0.00000211 Ry

     iteration # 16     ecut=    20.00 Ry     beta= 0.70
     Davidson diagonalization with overlap
     ethr =  1.51E-08,  avg # of iterations =  1.0

     total cpu time spent up to now is        6.0 secs

     End of self-consistent calculation

          k = 0.0000 0.0000 0.0000 ( 40657 PWs)   bands (ev):

   -17.2626  -9.3726  -9.3720  -9.3717

     highest occupied level (ev):    -9.3717

!    total energy              =     -15.59078978 Ry
     estimated scf accuracy    <       0.00000058 Ry

     The total energy is the sum of the following terms:
     one-electron contribution =     -48.93762863 Ry
     hartree contribution      =      25.11031815 Ry
     xc contribution           =      -6.08999811 Ry
     ewald contribution        =      14.32651881 Ry

     convergence has been achieved in  16 iterations

     Forces acting on atoms (cartesian axes, Ry/au):

     atom    1 type  1   force =     0.00006406    0.00000000    0.00005553
     atom    2 type  2   force =    -0.00000296    0.00000000    0.08125846
     atom    3 type  2   force =     0.07666442    0.00000000   -0.02713394
     atom    4 type  2   force =    -0.03836276   -0.06630744   -0.02709002
     atom    5 type  2   force =    -0.03836276    0.06630744   -0.02709002

     Total force =     0.162546     Total SCF correction =     0.000433


     Computing stress (Cartesian axis) and pressure

          total   stress  (Ry/bohr**3)                   (kbar)     P=       -0.99
  -0.00000673   0.00000000   0.00000000           -0.99        0.00        0.00
   0.00000000  -0.00000674   0.00000000            0.00       -0.99        0.00
   0.00000000   0.00000000  -0.00000674            0.00        0.00       -0.99

 
     init_run     :      0.33s CPU      0.45s WALL (       1 calls)
     electrons    :      5.45s CPU      5.58s WALL (       1 calls)
     forces       :      0.11s CPU      0.11s WALL (       1 calls)
     stress       :      0.12s CPU      0.13s WALL (       1 calls)

     Called by init_run:
     wfcinit      :      0.10s CPU      0.12s WALL (       1 calls)
     potinit      :      0.09s CPU      0.14s WALL (       1 calls)
     hinit0       :      0.06s CPU      0.10s WALL (       1 calls)

     Called by electrons:
     c_bands      :      1.95s CPU      1.96s WALL (      16 calls)
     sum_band     :      0.92s CPU      0.92s WALL (      16 calls)
     v_of_rho     :      0.98s CPU      1.02s WALL (      17 calls)
     mix_rho      :      1.42s CPU      1.52s WALL (      16 calls)

     Called by c_bands:
     init_us_2    :      0.04s CPU      0.04s WALL (      33 calls)
     init_us_2:cp :      0.04s CPU      0.04s WALL (      33 calls)
     regterg      :      1.92s CPU      1.93s WALL (      16 calls)

     Called by *egterg:
     rdiaghg      :      0.00s CPU      0.00s WALL (      40 calls)
     h_psi        :      1.87s CPU      1.89s WALL (      41 calls)
     g_psi        :      0.01s CPU      0.01s WALL (      24 calls)

     Called by h_psi:
     h_psi:calbec :      0.01s CPU      0.01s WALL (      41 calls)
     vloc_psi     :      1.84s CPU      1.85s WALL (      41 calls)
     add_vuspsi   :      0.01s CPU      0.01s WALL (      41 calls)

     General routines
     calbec       :      0.01s CPU      0.01s WALL (      46 calls)
     fft          :      0.54s CPU      0.55s WALL (      55 calls)
     ffts         :      0.14s CPU      0.14s WALL (      16 calls)
     fftw         :      1.78s CPU      1.78s WALL (     200 calls)
 
     Parallel routines
 
     PWSCF        :      6.02s CPU      6.31s WALL

 
   This run was terminated on:  11:21:24   2Jun2023            

=------------------------------------------------------------------------------=
   JOB DONE.
=------------------------------------------------------------------------------=
