
     Program PWSCF v.7.1 starts on 15Jul2024 at 15:40:39 

     This program is part of the open-source Quantum ESPRESSO suite
     for quantum simulation of materials; please cite
         "P. Giannozzi et al., J. Phys.:Condens. Matter 21 395502 (2009);
         "P. Giannozzi et al., J. Phys.:Condens. Matter 29 465901 (2017);
         "P. Giannozzi et al., J. Chem. Phys. 152 154105 (2020);
          URL http://www.quantum-espresso.org", 
     in publications or presentations arising from this work. More details at
     http://www.quantum-espresso.org/quote

     Parallel version (MPI), running on     1 processors

     MPI processes distributed on     1 nodes
     3253 MiB available memory on the printing compute node when the environment starts
 
     Waiting for input...
     Reading input from standard input

     Current dimensions of program PWSCF are:
     Max number of different atomic species (ntypx) = 10
     Max number of k-points (npk) =  40000
     Max angular momentum in pseudopotentials (lmaxx) =  4
 
     Subspace diagonalization in iterative solution of the eigenvalue problem:
     a serial algorithm will be used

 
     G-vector sticks info
     --------------------
     sticks:   dense  smooth     PW     G-vecs:    dense   smooth      PW
     Sum         295     295    109                 3287     3287     725
 
     Using Slab Decomposition
 


     bravais-lattice index     =            2
     lattice parameter (alat)  =      10.2631  a.u.
     unit-cell volume          =     270.2564 (a.u.)^3
     number of atoms/cell      =            2
     number of atomic types    =            1
     number of electrons       =         8.00
     number of Kohn-Sham states=            4
     kinetic-energy cutoff     =      20.0000  Ry
     charge density cutoff     =      80.0000  Ry
     scf convergence threshold =      1.0E-06
     mixing beta               =       0.7000
     number of iterations used =            8  plain     mixing
     Exchange-correlation=  SLA  PW   PBE  PBE
                           (   1   4   3   4   0   0   0)

     celldm(1)=  10.263103  celldm(2)=   0.000000  celldm(3)=   0.000000
     celldm(4)=   0.000000  celldm(5)=   0.000000  celldm(6)=   0.000000

     crystal axes: (cart. coord. in units of alat)
               a(1) = (  -0.500000   0.000000   0.500000 )  
               a(2) = (   0.000000   0.500000   0.500000 )  
               a(3) = (  -0.500000   0.500000   0.000000 )  

     reciprocal axes: (cart. coord. in units 2 pi/alat)
               b(1) = ( -1.000000 -1.000000  1.000000 )  
               b(2) = (  1.000000  1.000000  1.000000 )  
               b(3) = ( -1.000000  1.000000 -1.000000 )  


     PseudoPot. # 1 for Si read from file:
     ./Si.pbe-rrkj.UPF
     MD5 check sum: cf7ab5690cd9a85b22c4813f7e365554
     Pseudo is Norm-conserving, Zval =  4.0
     Generated by new atomic code, or converted to UPF format
     Using radial grid of  883 points,  3 beta functions with: 
                l(1) =   0
                l(2) =   0
                l(3) =   1

     atomic species   valence    mass     pseudopotential
        Si             4.00    28.08500     Si( 1.00)

     48 Sym. Ops., with inversion, found (24 have fractional translation)



   Cartesian axes

     site n.     atom                  positions (alat units)
         1           Si  tau(   1) = (   0.0000000   0.0000000   0.0000000  )
         2           Si  tau(   2) = (  -0.2500000   0.2500000   0.2500000  )

     number of k points=    60
                       cart. coord. in units 2pi/alat
        k(    1) = (  -0.0625000   0.0625000   0.0625000), wk =   0.0078125
        k(    2) = (  -0.1875000   0.1875000  -0.0625000), wk =   0.0234375
        k(    3) = (  -0.3125000   0.3125000  -0.1875000), wk =   0.0234375
        k(    4) = (  -0.4375000   0.4375000  -0.3125000), wk =   0.0234375
        k(    5) = (   0.4375000  -0.4375000   0.5625000), wk =   0.0234375
        k(    6) = (   0.3125000  -0.3125000   0.4375000), wk =   0.0234375
        k(    7) = (   0.1875000  -0.1875000   0.3125000), wk =   0.0234375
        k(    8) = (   0.0625000  -0.0625000   0.1875000), wk =   0.0234375
        k(    9) = (  -0.0625000   0.3125000   0.0625000), wk =   0.0234375
        k(   10) = (  -0.1875000   0.4375000  -0.0625000), wk =   0.0468750
        k(   11) = (  -0.3125000   0.5625000  -0.1875000), wk =   0.0468750
        k(   12) = (   0.5625000  -0.3125000   0.6875000), wk =   0.0468750
        k(   13) = (   0.4375000  -0.1875000   0.5625000), wk =   0.0468750
        k(   14) = (   0.3125000  -0.0625000   0.4375000), wk =   0.0468750
        k(   15) = (   0.1875000   0.0625000   0.3125000), wk =   0.0468750
        k(   16) = (  -0.0625000   0.5625000   0.0625000), wk =   0.0234375
        k(   17) = (  -0.1875000   0.6875000  -0.0625000), wk =   0.0468750
        k(   18) = (   0.6875000  -0.1875000   0.8125000), wk =   0.0468750
        k(   19) = (   0.5625000  -0.0625000   0.6875000), wk =   0.0468750
        k(   20) = (   0.4375000   0.0625000   0.5625000), wk =   0.0468750
        k(   21) = (   0.3125000   0.1875000   0.4375000), wk =   0.0468750
        k(   22) = (  -0.0625000   0.8125000   0.0625000), wk =   0.0234375
        k(   23) = (   0.8125000  -0.0625000   0.9375000), wk =   0.0468750
        k(   24) = (   0.6875000   0.0625000   0.8125000), wk =   0.0468750
        k(   25) = (   0.5625000   0.1875000   0.6875000), wk =   0.0468750
        k(   26) = (   0.4375000   0.3125000   0.5625000), wk =   0.0468750
        k(   27) = (  -0.0625000  -0.9375000   0.0625000), wk =   0.0234375
        k(   28) = (  -0.1875000  -0.8125000  -0.0625000), wk =   0.0468750
        k(   29) = (  -0.3125000  -0.6875000  -0.1875000), wk =   0.0468750
        k(   30) = (  -0.0625000  -0.6875000   0.0625000), wk =   0.0234375
        k(   31) = (  -0.1875000  -0.5625000  -0.0625000), wk =   0.0468750
        k(   32) = (  -0.0625000  -0.4375000   0.0625000), wk =   0.0234375
        k(   33) = (  -0.1875000   0.1875000   0.1875000), wk =   0.0078125
        k(   34) = (  -0.3125000   0.3125000   0.0625000), wk =   0.0234375
        k(   35) = (  -0.4375000   0.4375000  -0.0625000), wk =   0.0234375
        k(   36) = (   0.4375000  -0.4375000   0.8125000), wk =   0.0234375
        k(   37) = (   0.3125000  -0.3125000   0.6875000), wk =   0.0234375
        k(   38) = (   0.1875000  -0.1875000   0.5625000), wk =   0.0234375
        k(   39) = (  -0.1875000   0.4375000   0.1875000), wk =   0.0234375
        k(   40) = (  -0.3125000   0.5625000   0.0625000), wk =   0.0468750
        k(   41) = (   0.5625000  -0.3125000   0.9375000), wk =   0.0468750
        k(   42) = (   0.4375000  -0.1875000   0.8125000), wk =   0.0468750
        k(   43) = (   0.3125000  -0.0625000   0.6875000), wk =   0.0468750
        k(   44) = (  -0.1875000   0.6875000   0.1875000), wk =   0.0234375
        k(   45) = (   0.6875000  -0.1875000   1.0625000), wk =   0.0468750
        k(   46) = (   0.5625000  -0.0625000   0.9375000), wk =   0.0468750
        k(   47) = (   0.4375000   0.0625000   0.8125000), wk =   0.0468750
        k(   48) = (  -0.1875000  -1.0625000   0.1875000), wk =   0.0234375
        k(   49) = (  -0.3125000  -0.9375000   0.0625000), wk =   0.0468750
        k(   50) = (  -0.1875000  -0.8125000   0.1875000), wk =   0.0234375
        k(   51) = (  -0.3125000   0.3125000   0.3125000), wk =   0.0078125
        k(   52) = (  -0.4375000   0.4375000   0.1875000), wk =   0.0234375
        k(   53) = (   0.4375000  -0.4375000   1.0625000), wk =   0.0234375
        k(   54) = (   0.3125000  -0.3125000   0.9375000), wk =   0.0234375
        k(   55) = (  -0.3125000   0.5625000   0.3125000), wk =   0.0234375
        k(   56) = (   0.5625000  -0.3125000   1.1875000), wk =   0.0468750
        k(   57) = (   0.4375000  -0.1875000   1.0625000), wk =   0.0468750
        k(   58) = (  -0.3125000  -1.1875000   0.3125000), wk =   0.0234375
        k(   59) = (  -0.4375000   0.4375000   0.4375000), wk =   0.0078125
        k(   60) = (   0.4375000  -0.4375000   1.3125000), wk =   0.0234375

     Dense  grid:     3287 G-vectors     FFT dimensions: (  24,  24,  24)

     Estimated max dynamical RAM per process >       4.12 MB

     Initial potential from superposition of free atoms

     starting charge       7.9989, renormalised to       8.0000
     Starting wfcs are    8 randomized atomic wfcs

     total cpu time spent up to now is        0.1 secs

     Self-consistent Calculation

     iteration #  1     ecut=    20.00 Ry     beta= 0.70
     Davidson diagonalization with overlap
     ethr =  1.00E-02,  avg # of iterations =  2.0

     Threshold (ethr) on eigenvalues was too large:
     Diagonalizing with lowered threshold

     Davidson diagonalization with overlap
     ethr =  5.92E-04,  avg # of iterations =  1.9

     total cpu time spent up to now is        0.4 secs

     total energy              =     -15.73821371 Ry
     estimated scf accuracy    <       0.05567807 Ry

     iteration #  2     ecut=    20.00 Ry     beta= 0.70
     Davidson diagonalization with overlap
     ethr =  6.96E-04,  avg # of iterations =  1.0

     total cpu time spent up to now is        0.5 secs

     total energy              =     -15.74006735 Ry
     estimated scf accuracy    <       0.00309254 Ry

     iteration #  3     ecut=    20.00 Ry     beta= 0.70
     Davidson diagonalization with overlap
     ethr =  3.87E-05,  avg # of iterations =  2.1

     total cpu time spent up to now is        0.6 secs

     total energy              =     -15.74069110 Ry
     estimated scf accuracy    <       0.00009410 Ry

     iteration #  4     ecut=    20.00 Ry     beta= 0.70
     Davidson diagonalization with overlap
     ethr =  1.18E-06,  avg # of iterations =  4.7

     total cpu time spent up to now is        0.8 secs

     total energy              =     -15.74076570 Ry
     estimated scf accuracy    <       0.00000375 Ry

     iteration #  5     ecut=    20.00 Ry     beta= 0.70
     Davidson diagonalization with overlap
     ethr =  4.69E-08,  avg # of iterations =  4.3

     total cpu time spent up to now is        1.0 secs

     End of self-consistent calculation

          k =-0.0625 0.0625 0.0625 (   411 PWs)   bands (ev):

    -5.6217   5.7062   6.1432   6.1432

          k =-0.1875 0.1875-0.0625 (   401 PWs)   bands (ev):

    -5.3507   4.2129   5.3293   6.0270

          k =-0.3125 0.3125-0.1875 (   406 PWs)   bands (ev):

    -4.6959   1.9737   4.8423   5.5619

          k =-0.4375 0.4375-0.3125 (   410 PWs)   bands (ev):

    -3.7783   0.0663   4.6280   5.1514

          k = 0.4375-0.4375 0.5625 (   405 PWs)   bands (ev):

    -3.3176  -0.6479   4.6811   4.9302

          k = 0.3125-0.3125 0.4375 (   409 PWs)   bands (ev):

    -4.0934   0.6319   4.9491   4.9706

          k = 0.1875-0.1875 0.3125 (   402 PWs)   bands (ev):

    -4.9528   2.7091   5.2256   5.4375

          k = 0.0625-0.0625 0.1875 (   399 PWs)   bands (ev):

    -5.4855   4.9671   5.7109   5.8805

          k =-0.0625 0.3125 0.0625 (   403 PWs)   bands (ev):

    -5.2144   4.0871   5.1467   5.2429

          k =-0.1875 0.4375-0.0625 (   408 PWs)   bands (ev):

    -4.6839   2.5817   4.1710   4.9791

          k =-0.3125 0.5625-0.1875 (   408 PWs)   bands (ev):

    -3.8267   0.6988   3.6843   4.5595

          k = 0.5625-0.3125 0.6875 (   407 PWs)   bands (ev):

    -3.0469  -0.5337   3.3968   4.4632

          k = 0.4375-0.1875 0.5625 (   410 PWs)   bands (ev):

    -3.5168   0.1709   3.3173   4.7535

          k = 0.3125-0.0625 0.4375 (   406 PWs)   bands (ev):

    -4.4325   1.9242   3.6097   5.2694

          k = 0.1875 0.0625 0.3125 (   400 PWs)   bands (ev):

    -5.0824   3.4008   4.7471   5.6486

          k =-0.0625 0.5625 0.0625 (   413 PWs)   bands (ev):

    -4.2792   2.0956   4.0255   4.1468

          k =-0.1875 0.6875-0.0625 (   414 PWs)   bands (ev):

    -3.5180   0.8500   3.2280   3.7951

          k = 0.6875-0.1875 0.8125 (   409 PWs)   bands (ev):

    -2.6034  -0.3671   2.3782   3.7637

          k = 0.5625-0.0625 0.6875 (   406 PWs)   bands (ev):

    -2.6737  -0.2735   2.0169   4.1136

          k = 0.4375 0.0625 0.5625 (   412 PWs)   bands (ev):

    -3.5857   0.6801   2.6350   4.7079

          k = 0.3125 0.1875 0.4375 (   407 PWs)   bands (ev):

    -4.3172   1.2992   4.2980   5.1703

          k =-0.0625 0.8125 0.0625 (   413 PWs)   bands (ev):

    -2.8580  -0.0169   3.3267   3.5483

          k = 0.8125-0.0625 0.9375 (   415 PWs)   bands (ev):

    -1.9355  -1.0149   2.7575   3.2998

          k = 0.6875 0.0625 0.8125 (   410 PWs)   bands (ev):

    -2.0251  -0.8533   2.0140   3.6189

          k = 0.5625 0.1875 0.6875 (   407 PWs)   bands (ev):

    -2.7888  -0.4732   2.5974   4.2284

          k = 0.4375 0.3125 0.5625 (   408 PWs)   bands (ev):

    -3.4071  -0.3408   4.1285   4.8277

          k =-0.0625-0.9375 0.0625 (   413 PWs)   bands (ev):

    -1.9896  -1.0342   3.1871   3.4261

          k =-0.1875-0.8125-0.0625 (   413 PWs)   bands (ev):

    -2.7700  -0.0805   2.9188   3.4607

          k =-0.3125-0.6875-0.1875 (   408 PWs)   bands (ev):

    -3.2428   0.1559   2.9980   4.0680

          k =-0.0625-0.6875 0.0625 (   413 PWs)   bands (ev):

    -3.6253   1.0372   3.6059   3.7906

          k =-0.1875-0.5625-0.0625 (   412 PWs)   bands (ev):

    -4.1598   1.7393   3.6559   4.3145

          k =-0.0625-0.4375 0.0625 (   411 PWs)   bands (ev):

    -4.8109   3.1227   4.5812   4.6066

          k =-0.1875 0.1875 0.1875 (   402 PWs)   bands (ev):

    -5.2175   3.4811   5.6986   5.6986

          k =-0.3125 0.3125 0.0625 (   402 PWs)   bands (ev):

    -4.8205   2.6510   4.1688   5.7213

          k =-0.4375 0.4375-0.0625 (   406 PWs)   bands (ev):

    -4.0628   1.2804   3.0746   5.2095

          k = 0.4375-0.4375 0.8125 (   406 PWs)   bands (ev):

    -3.1502  -0.2367   2.9329   4.6706

          k = 0.3125-0.3125 0.6875 (   409 PWs)   bands (ev):

    -3.1349  -0.2648   3.2400   4.3473

          k = 0.1875-0.1875 0.5625 (   411 PWs)   bands (ev):

    -4.0465   1.2763   3.8570   4.3213

          k =-0.1875 0.4375 0.1875 (   401 PWs)   bands (ev):

    -4.5603   1.9766   4.6992   4.7447

          k =-0.3125 0.5625 0.0625 (   409 PWs)   bands (ev):

    -3.9254   1.2219   3.1314   4.5498

          k = 0.5625-0.3125 0.9375 (   409 PWs)   bands (ev):

    -3.0193   0.1171   2.3272   3.9694

          k = 0.4375-0.1875 0.8125 (   408 PWs)   bands (ev):

    -2.5202  -0.5112   2.3373   3.6497

          k = 0.3125-0.0625 0.6875 (   409 PWs)   bands (ev):

    -3.3106   0.5169   2.7602   3.8331

          k =-0.1875 0.6875 0.1875 (   414 PWs)   bands (ev):

    -3.4220   0.5684   3.1042   3.9867

          k = 0.6875-0.1875 1.0625 (   407 PWs)   bands (ev):

    -2.6063  -0.2229   2.5082   3.2857

          k = 0.5625-0.0625 0.9375 (   404 PWs)   bands (ev):

    -1.7832  -0.9821   2.1784   2.7742

          k = 0.4375 0.0625 0.8125 (   406 PWs)   bands (ev):

    -2.3948  -0.4352   2.1762   3.2585

          k =-0.1875-1.0625 0.1875 (   413 PWs)   bands (ev):

    -1.9521  -0.9667   2.2858   3.6409

          k =-0.3125-0.9375 0.0625 (   410 PWs)   bands (ev):

    -1.8507  -0.9925   2.3813   2.9963

          k =-0.1875-0.8125 0.1875 (   414 PWs)   bands (ev):

    -2.7057  -0.1889   2.5612   3.7574

          k =-0.3125 0.3125 0.3125 (   401 PWs)   bands (ev):

    -4.4505   1.2606   5.2832   5.2832

          k =-0.4375 0.4375 0.1875 (   406 PWs)   bands (ev):

    -3.9634   0.6851   3.8104   5.1955

          k = 0.4375-0.4375 1.0625 (   408 PWs)   bands (ev):

    -3.1584   0.1749   2.2469   4.6051

          k = 0.3125-0.3125 0.9375 (   403 PWs)   bands (ev):

    -2.3213  -0.6060   1.8952   4.0505

          k =-0.3125 0.5625 0.3125 (   410 PWs)   bands (ev):

    -3.6427   0.1182   4.1591   4.6222

          k = 0.5625-0.3125 1.1875 (   410 PWs)   bands (ev):

    -3.0121  -0.2296   2.8251   4.1366

          k = 0.4375-0.1875 1.0625 (   408 PWs)   bands (ev):

    -2.1822  -0.6659   1.9881   3.4108

          k =-0.3125-1.1875 0.3125 (   407 PWs)   bands (ev):

    -2.6462  -0.5055   2.4178   4.1516

          k =-0.4375 0.4375 0.4375 (   413 PWs)   bands (ev):

    -3.5415  -0.4081   5.0611   5.0611

          k = 0.4375-0.4375 1.3125 (   406 PWs)   bands (ev):

    -3.1831  -0.5817   3.8363   4.7880

     highest occupied level (ev):     6.1432

!    total energy              =     -15.74076864 Ry
     estimated scf accuracy    <       0.00000023 Ry

     The total energy is the sum of the following terms:
     one-electron contribution =       4.77275405 Ry
     hartree contribution      =       1.09436743 Ry
     xc contribution           =      -4.81203952 Ry
     ewald contribution        =     -16.79585060 Ry

     convergence has been achieved in   5 iterations
 
     init_run     :      0.09s CPU      0.10s WALL (       1 calls)
     electrons    :      0.70s CPU      0.86s WALL (       1 calls)

     Called by init_run:
     wfcinit      :      0.07s CPU      0.08s WALL (       1 calls)
     potinit      :      0.01s CPU      0.01s WALL (       1 calls)
     hinit0       :      0.01s CPU      0.01s WALL (       1 calls)

     Called by electrons:
     c_bands      :      0.57s CPU      0.72s WALL (       6 calls)
     sum_band     :      0.10s CPU      0.12s WALL (       6 calls)
     v_of_rho     :      0.02s CPU      0.02s WALL (       6 calls)
     mix_rho      :      0.00s CPU      0.00s WALL (       6 calls)

     Called by c_bands:
     init_us_2    :      0.04s CPU      0.04s WALL (     780 calls)
     init_us_2:cp :      0.03s CPU      0.04s WALL (     780 calls)
     cegterg      :      0.53s CPU      0.66s WALL (     360 calls)

     Called by *egterg:
     cdiaghg      :      0.04s CPU      0.04s WALL (    1267 calls)
     h_psi        :      0.46s CPU      0.57s WALL (    1387 calls)
     g_psi        :      0.01s CPU      0.01s WALL (     967 calls)

     Called by h_psi:
     h_psi:calbec :      0.02s CPU      0.02s WALL (    1387 calls)
     vloc_psi     :      0.40s CPU      0.50s WALL (    1387 calls)
     add_vuspsi   :      0.01s CPU      0.02s WALL (    1387 calls)

     General routines
     calbec       :      0.01s CPU      0.01s WALL (    1387 calls)
     fft          :      0.00s CPU      0.00s WALL (      60 calls)
     ffts         :      0.00s CPU      0.00s WALL (       6 calls)
     fftw         :      0.34s CPU      0.42s WALL (   11086 calls)
 
     Parallel routines
 
     PWSCF        :      0.80s CPU      0.99s WALL

 
   This run was terminated on:  15:40:40  15Jul2024            

=------------------------------------------------------------------------------=
   JOB DONE.
=------------------------------------------------------------------------------=
