
     Program PWSCF v.7.1 starts on 15Jul2024 at 15:40:38 

     This program is part of the open-source Quantum ESPRESSO suite
     for quantum simulation of materials; please cite
         "P. Giannozzi et al., J. Phys.:Condens. Matter 21 395502 (2009);
         "P. Giannozzi et al., J. Phys.:Condens. Matter 29 465901 (2017);
         "P. Giannozzi et al., J. Chem. Phys. 152 154105 (2020);
          URL http://www.quantum-espresso.org", 
     in publications or presentations arising from this work. More details at
     http://www.quantum-espresso.org/quote

     Parallel version (MPI), running on     1 processors

     MPI processes distributed on     1 nodes
     3252 MiB available memory on the printing compute node when the environment starts
 
     Waiting for input...
     Reading input from standard input

     Current dimensions of program PWSCF are:
     Max number of different atomic species (ntypx) = 10
     Max number of k-points (npk) =  40000
     Max angular momentum in pseudopotentials (lmaxx) =  4
 
     Subspace diagonalization in iterative solution of the eigenvalue problem:
     a serial algorithm will be used

 
     G-vector sticks info
     --------------------
     sticks:   dense  smooth     PW     G-vecs:    dense   smooth      PW
     Sum         295     295    109                 3287     3287     701
 
     Using Slab Decomposition
 


     bravais-lattice index     =            2
     lattice parameter (alat)  =      10.2631  a.u.
     unit-cell volume          =     270.2564 (a.u.)^3
     number of atoms/cell      =            2
     number of atomic types    =            1
     number of electrons       =         8.00
     number of Kohn-Sham states=            4
     kinetic-energy cutoff     =      20.0000  Ry
     charge density cutoff     =      80.0000  Ry
     scf convergence threshold =      1.0E-06
     mixing beta               =       0.7000
     number of iterations used =            8  plain     mixing
     Exchange-correlation=  SLA  PW   PBE  PBE
                           (   1   4   3   4   0   0   0)

     celldm(1)=  10.263103  celldm(2)=   0.000000  celldm(3)=   0.000000
     celldm(4)=   0.000000  celldm(5)=   0.000000  celldm(6)=   0.000000

     crystal axes: (cart. coord. in units of alat)
               a(1) = (  -0.500000   0.000000   0.500000 )  
               a(2) = (   0.000000   0.500000   0.500000 )  
               a(3) = (  -0.500000   0.500000   0.000000 )  

     reciprocal axes: (cart. coord. in units 2 pi/alat)
               b(1) = ( -1.000000 -1.000000  1.000000 )  
               b(2) = (  1.000000  1.000000  1.000000 )  
               b(3) = ( -1.000000  1.000000 -1.000000 )  


     PseudoPot. # 1 for Si read from file:
     ./Si.pbe-rrkj.UPF
     MD5 check sum: cf7ab5690cd9a85b22c4813f7e365554
     Pseudo is Norm-conserving, Zval =  4.0
     Generated by new atomic code, or converted to UPF format
     Using radial grid of  883 points,  3 beta functions with: 
                l(1) =   0
                l(2) =   0
                l(3) =   1

     atomic species   valence    mass     pseudopotential
        Si             4.00    28.08500     Si( 1.00)

     48 Sym. Ops., with inversion, found (24 have fractional translation)



   Cartesian axes

     site n.     atom                  positions (alat units)
         1           Si  tau(   1) = (   0.0000000   0.0000000   0.0000000  )
         2           Si  tau(   2) = (  -0.2500000   0.2500000   0.2500000  )

     number of k points=    28
                       cart. coord. in units 2pi/alat
        k(    1) = (  -0.0833333   0.0833333   0.0833333), wk =   0.0185185
        k(    2) = (  -0.2500000   0.2500000  -0.0833333), wk =   0.0555556
        k(    3) = (  -0.4166667   0.4166667  -0.2500000), wk =   0.0555556
        k(    4) = (   0.4166667  -0.4166667   0.5833333), wk =   0.0555556
        k(    5) = (   0.2500000  -0.2500000   0.4166667), wk =   0.0555556
        k(    6) = (   0.0833333  -0.0833333   0.2500000), wk =   0.0555556
        k(    7) = (  -0.0833333   0.4166667   0.0833333), wk =   0.0555556
        k(    8) = (  -0.2500000   0.5833333  -0.0833333), wk =   0.1111111
        k(    9) = (   0.5833333  -0.2500000   0.7500000), wk =   0.1111111
        k(   10) = (   0.4166667  -0.0833333   0.5833333), wk =   0.1111111
        k(   11) = (   0.2500000   0.0833333   0.4166667), wk =   0.1111111
        k(   12) = (  -0.0833333   0.7500000   0.0833333), wk =   0.0555556
        k(   13) = (   0.7500000  -0.0833333   0.9166667), wk =   0.1111111
        k(   14) = (   0.5833333   0.0833333   0.7500000), wk =   0.1111111
        k(   15) = (   0.4166667   0.2500000   0.5833333), wk =   0.1111111
        k(   16) = (  -0.0833333  -0.9166667   0.0833333), wk =   0.0555556
        k(   17) = (  -0.2500000  -0.7500000  -0.0833333), wk =   0.1111111
        k(   18) = (  -0.0833333  -0.5833333   0.0833333), wk =   0.0555556
        k(   19) = (  -0.2500000   0.2500000   0.2500000), wk =   0.0185185
        k(   20) = (  -0.4166667   0.4166667   0.0833333), wk =   0.0555556
        k(   21) = (   0.4166667  -0.4166667   0.9166667), wk =   0.0555556
        k(   22) = (   0.2500000  -0.2500000   0.7500000), wk =   0.0555556
        k(   23) = (  -0.2500000   0.5833333   0.2500000), wk =   0.0555556
        k(   24) = (   0.5833333  -0.2500000   1.0833333), wk =   0.1111111
        k(   25) = (   0.4166667  -0.0833333   0.9166667), wk =   0.1111111
        k(   26) = (  -0.2500000  -1.0833333   0.2500000), wk =   0.0555556
        k(   27) = (  -0.4166667   0.4166667   0.4166667), wk =   0.0185185
        k(   28) = (   0.4166667  -0.4166667   1.2500000), wk =   0.0555556

     Dense  grid:     3287 G-vectors     FFT dimensions: (  24,  24,  24)

     Estimated max dynamical RAM per process >       3.33 MB

     Initial potential from superposition of free atoms

     starting charge       7.9989, renormalised to       8.0000
     Starting wfcs are    8 randomized atomic wfcs

     total cpu time spent up to now is        0.1 secs

     Self-consistent Calculation

     iteration #  1     ecut=    20.00 Ry     beta= 0.70
     Davidson diagonalization with overlap
     ethr =  1.00E-02,  avg # of iterations =  2.0

     Threshold (ethr) on eigenvalues was too large:
     Diagonalizing with lowered threshold

     Davidson diagonalization with overlap
     ethr =  5.94E-04,  avg # of iterations =  1.9

     total cpu time spent up to now is        0.2 secs

     total energy              =     -15.73817499 Ry
     estimated scf accuracy    <       0.05558692 Ry

     iteration #  2     ecut=    20.00 Ry     beta= 0.70
     Davidson diagonalization with overlap
     ethr =  6.95E-04,  avg # of iterations =  1.0

     total cpu time spent up to now is        0.3 secs

     total energy              =     -15.74004956 Ry
     estimated scf accuracy    <       0.00310904 Ry

     iteration #  3     ecut=    20.00 Ry     beta= 0.70
     Davidson diagonalization with overlap
     ethr =  3.89E-05,  avg # of iterations =  2.2

     total cpu time spent up to now is        0.3 secs

     total energy              =     -15.74068816 Ry
     estimated scf accuracy    <       0.00009574 Ry

     iteration #  4     ecut=    20.00 Ry     beta= 0.70
     Davidson diagonalization with overlap
     ethr =  1.20E-06,  avg # of iterations =  4.8

     total cpu time spent up to now is        0.4 secs

     total energy              =     -15.74075920 Ry
     estimated scf accuracy    <       0.00000419 Ry

     iteration #  5     ecut=    20.00 Ry     beta= 0.70
     Davidson diagonalization with overlap
     ethr =  5.23E-08,  avg # of iterations =  4.1

     total cpu time spent up to now is        0.5 secs

     End of self-consistent calculation

          k =-0.0833 0.0833 0.0833 (   405 PWs)   bands (ev):

    -5.5819   5.3824   6.0844   6.0844

          k =-0.2500 0.2500-0.0833 (   399 PWs)   bands (ev):

    -5.1040   3.3151   4.8505   5.8757

          k =-0.4167 0.4167-0.2500 (   409 PWs)   bands (ev):

    -4.0068   0.5481   4.3901   5.2382

          k = 0.4167-0.4167 0.5833 (   409 PWs)   bands (ev):

    -3.3013  -0.6032   4.4590   4.8563

          k = 0.2500-0.2500 0.4167 (   405 PWs)   bands (ev):

    -4.4209   1.3971   4.9154   4.9594

          k = 0.0833-0.0833 0.2500 (   401 PWs)   bands (ev):

    -5.3407   4.3253   5.4370   5.6315

          k =-0.0833 0.4167 0.0833 (   406 PWs)   bands (ev):

    -4.8623   3.1395   4.6979   4.7056

          k =-0.2500 0.5833-0.0833 (   409 PWs)   bands (ev):

    -3.9488   1.3019   3.3743   4.3201

          k = 0.5833-0.2500 0.7500 (   409 PWs)   bands (ev):

    -2.8236  -0.4617   2.7770   4.0904

          k = 0.4167-0.0833 0.5833 (   412 PWs)   bands (ev):

    -3.5518   0.6050   2.7295   4.5798

          k = 0.2500 0.0833 0.4167 (   404 PWs)   bands (ev):

    -4.6359   2.2962   4.0735   5.2523

          k =-0.0833 0.7500 0.0833 (   413 PWs)   bands (ev):

    -3.2359   0.4837   3.3335   3.6748

          k = 0.7500-0.0833 0.9167 (   411 PWs)   bands (ev):

    -2.0345  -0.8576   2.4866   3.2662

          k = 0.5833 0.0833 0.7500 (   405 PWs)   bands (ev):

    -2.4027  -0.5292   2.0039   3.8139

          k = 0.4167 0.2500 0.5833 (   407 PWs)   bands (ev):

    -3.4373  -0.0941   3.6822   4.6780

          k =-0.0833-0.9167 0.0833 (   415 PWs)   bands (ev):

    -2.1286  -0.8665   3.0626   3.4589

          k =-0.2500-0.7500-0.0833 (   410 PWs)   bands (ev):

    -3.0656   0.2582   2.8129   3.6072

          k =-0.0833-0.5833 0.0833 (   413 PWs)   bands (ev):

    -4.1556   1.8475   3.8821   4.0979

          k =-0.2500 0.2500 0.2500 (   401 PWs)   bands (ev):

    -4.8736   2.3326   5.4710   5.4710

          k =-0.4167 0.4167 0.0833 (   404 PWs)   bands (ev):

    -4.1920   1.4085   3.3394   5.3023

          k = 0.4167-0.4167 0.9167 (   408 PWs)   bands (ev):

    -3.0065  -0.0287   2.2264   4.5132

          k = 0.2500-0.2500 0.7500 (   412 PWs)   bands (ev):

    -2.9550  -0.1077   2.7095   4.0295

          k =-0.2500 0.5833 0.2500 (   412 PWs)   bands (ev):

    -3.7660   0.5969   3.8130   4.4036

          k = 0.5833-0.2500 1.0833 (   409 PWs)   bands (ev):

    -2.7594  -0.1353   2.3254   3.6046

          k = 0.4167-0.0833 0.9167 (   406 PWs)   bands (ev):

    -1.9248  -0.8654   2.1554   2.9339

          k =-0.2500-1.0833 0.2500 (   410 PWs)   bands (ev):

    -2.1355  -0.7757   2.0287   3.8344

          k =-0.4167 0.4167 0.4167 (   413 PWs)   bands (ev):

    -3.6743  -0.2008   5.0828   5.0828

          k = 0.4167-0.4167 1.2500 (   406 PWs)   bands (ev):

    -3.0654  -0.4989   3.2553   4.6407

     highest occupied level (ev):     6.0844

!    total energy              =     -15.74076208 Ry
     estimated scf accuracy    <       0.00000018 Ry

     The total energy is the sum of the following terms:
     one-electron contribution =       4.77272414 Ry
     hartree contribution      =       1.09443412 Ry
     xc contribution           =      -4.81206974 Ry
     ewald contribution        =     -16.79585060 Ry

     convergence has been achieved in   5 iterations
 
     init_run     :      0.05s CPU      0.06s WALL (       1 calls)
     electrons    :      0.33s CPU      0.42s WALL (       1 calls)

     Called by init_run:
     wfcinit      :      0.03s CPU      0.04s WALL (       1 calls)
     potinit      :      0.00s CPU      0.01s WALL (       1 calls)
     hinit0       :      0.01s CPU      0.01s WALL (       1 calls)

     Called by electrons:
     c_bands      :      0.26s CPU      0.33s WALL (       6 calls)
     sum_band     :      0.05s CPU      0.06s WALL (       6 calls)
     v_of_rho     :      0.02s CPU      0.02s WALL (       6 calls)
     mix_rho      :      0.00s CPU      0.00s WALL (       6 calls)

     Called by c_bands:
     init_us_2    :      0.02s CPU      0.02s WALL (     364 calls)
     init_us_2:cp :      0.01s CPU      0.02s WALL (     364 calls)
     cegterg      :      0.24s CPU      0.31s WALL (     168 calls)

     Called by *egterg:
     cdiaghg      :      0.02s CPU      0.02s WALL (     586 calls)
     h_psi        :      0.21s CPU      0.26s WALL (     642 calls)
     g_psi        :      0.00s CPU      0.00s WALL (     446 calls)

     Called by h_psi:
     h_psi:calbec :      0.01s CPU      0.01s WALL (     642 calls)
     vloc_psi     :      0.18s CPU      0.23s WALL (     642 calls)
     add_vuspsi   :      0.01s CPU      0.01s WALL (     642 calls)

     General routines
     calbec       :      0.01s CPU      0.01s WALL (     642 calls)
     fft          :      0.00s CPU      0.00s WALL (      60 calls)
     ffts         :      0.00s CPU      0.00s WALL (       6 calls)
     fftw         :      0.16s CPU      0.20s WALL (    5148 calls)
 
     Parallel routines
 
     PWSCF        :      0.40s CPU      0.50s WALL

 
   This run was terminated on:  15:40:39  15Jul2024            

=------------------------------------------------------------------------------=
   JOB DONE.
=------------------------------------------------------------------------------=
