
     Program PWSCF v.7.1 starts on 21Apr2023 at 16:41:55 

     This program is part of the open-source Quantum ESPRESSO suite
     for quantum simulation of materials; please cite
         "P. Giannozzi et al., J. Phys.:Condens. Matter 21 395502 (2009);
         "P. Giannozzi et al., J. Phys.:Condens. Matter 29 465901 (2017);
         "P. Giannozzi et al., J. Chem. Phys. 152 154105 (2020);
          URL http://www.quantum-espresso.org", 
     in publications or presentations arising from this work. More details at
     http://www.quantum-espresso.org/quote

     Parallel version (MPI), running on     1 processors

     MPI processes distributed on     1 nodes
     3779 MiB available memory on the printing compute node when the environment starts
 
     Waiting for input...
     Reading input from standard input

     Current dimensions of program PWSCF are:
     Max number of different atomic species (ntypx) = 10
     Max number of k-points (npk) =  40000
     Max angular momentum in pseudopotentials (lmaxx) =  4
     file H.pz-vbc.UPF: wavefunction(s)  1S renormalized

     gamma-point specific algorithms are used
 
     Subspace diagonalization in iterative solution of the eigenvalue problem:
     a serial algorithm will be used

 
     G-vector sticks info
     --------------------
     sticks:   dense  smooth     PW     G-vecs:    dense   smooth      PW
     Sum        5129    5129   1281               274961   274961   34457
 
     Using Slab Decomposition
 


     bravais-lattice index     =            1
     lattice parameter (alat)  =      28.3459  a.u.
     unit-cell volume          =   22775.6289 (a.u.)^3
     number of atoms/cell      =            5
     number of atomic types    =            2
     number of electrons       =         8.00
     number of Kohn-Sham states=            4
     kinetic-energy cutoff     =      20.0000  Ry
     charge density cutoff     =      80.0000  Ry
     scf convergence threshold =      1.0E-06
     mixing beta               =       0.7000
     number of iterations used =            8  plain     mixing
     Exchange-correlation=  SLA  PZ   NOGX NOGC
                           (   1   1   0   0   0   0   0)

     celldm(1)=  28.345892  celldm(2)=   0.000000  celldm(3)=   0.000000
     celldm(4)=   0.000000  celldm(5)=   0.000000  celldm(6)=   0.000000

     crystal axes: (cart. coord. in units of alat)
               a(1) = (   1.000000   0.000000   0.000000 )  
               a(2) = (   0.000000   1.000000   0.000000 )  
               a(3) = (   0.000000   0.000000   1.000000 )  

     reciprocal axes: (cart. coord. in units 2 pi/alat)
               b(1) = (  1.000000  0.000000  0.000000 )  
               b(2) = (  0.000000  1.000000  0.000000 )  
               b(3) = (  0.000000  0.000000  1.000000 )  


     PseudoPot. # 1 for C  read from file:
     ./C.pz-vbc.UPF
     MD5 check sum: ab53dd623bfeb79c5a7b057bc96eae20
     Pseudo is Norm-conserving, Zval =  4.0
     Generated by new atomic code, or converted to UPF format
     Using radial grid of  269 points,  1 beta functions with: 
                l(1) =   0

     PseudoPot. # 2 for H  read from file:
     ./H.pz-vbc.UPF
     MD5 check sum: 90becb985b714f09656c73597998d266
     Pseudo is Norm-conserving, Zval =  1.0
     Generated by new atomic code, or converted to UPF format
     Using radial grid of  131 points,  0 beta functions with: 

     atomic species   valence    mass     pseudopotential
        C              4.00    12.01100     C ( 1.00)
        H              1.00     1.00800     H ( 1.00)

      2 Sym. Ops. (no inversion) found



   Cartesian axes

     site n.     atom                  positions (alat units)
         1           C   tau(   1) = (   0.0000000   0.0000000   0.0000000  )
         2           H   tau(   2) = (   0.0000000   0.0000000   0.0726000  )
         3           H   tau(   3) = (   0.0684479   0.0000000  -0.0242000  )
         4           H   tau(   4) = (  -0.0342240  -0.0592777  -0.0242000  )
         5           H   tau(   5) = (  -0.0342240   0.0592777  -0.0242000  )

     number of k points=     1
                       cart. coord. in units 2pi/alat
        k(    1) = (   0.0000000   0.0000000   0.0000000), wk =   2.0000000

     Dense  grid:   137481 G-vectors     FFT dimensions: (  81,  81,  81)

     Estimated max dynamical RAM per process >     103.38 MB

     Initial potential from superposition of free atoms

     starting charge       7.9999, renormalised to       8.0000

     negative rho (up, down):  7.782E-02 0.000E+00
     Starting wfcs are    8 randomized atomic wfcs

     total cpu time spent up to now is        0.2 secs

     Self-consistent Calculation

     iteration #  1     ecut=    20.00 Ry     beta= 0.70
     Davidson diagonalization with overlap
     ethr =  1.00E-02,  avg # of iterations =  2.0

     negative rho (up, down):  2.282E-02 0.000E+00

     total cpu time spent up to now is        0.4 secs

     total energy              =     -15.46820946 Ry
     estimated scf accuracy    <       0.49123497 Ry

     iteration #  2     ecut=    20.00 Ry     beta= 0.70
     Davidson diagonalization with overlap
     ethr =  6.14E-03,  avg # of iterations =  2.0

     negative rho (up, down):  1.091E-02 0.000E+00

     total cpu time spent up to now is        0.6 secs

     total energy              =     -15.57758245 Ry
     estimated scf accuracy    <       0.10138755 Ry

     iteration #  3     ecut=    20.00 Ry     beta= 0.70
     Davidson diagonalization with overlap
     ethr =  1.27E-03,  avg # of iterations =  2.0

     negative rho (up, down):  6.026E-05 0.000E+00

     total cpu time spent up to now is        0.7 secs

     total energy              =     -15.59279618 Ry
     estimated scf accuracy    <       0.00283934 Ry

     iteration #  4     ecut=    20.00 Ry     beta= 0.70
     Davidson diagonalization with overlap
     ethr =  3.55E-05,  avg # of iterations =  2.0

     negative rho (up, down):  9.776E-05 0.000E+00

     total cpu time spent up to now is        0.9 secs

     total energy              =     -15.59347064 Ry
     estimated scf accuracy    <       0.00061488 Ry

     iteration #  5     ecut=    20.00 Ry     beta= 0.70
     Davidson diagonalization with overlap
     ethr =  7.69E-06,  avg # of iterations =  1.0

     negative rho (up, down):  1.970E-05 0.000E+00

     total cpu time spent up to now is        1.1 secs

     total energy              =     -15.59331515 Ry
     estimated scf accuracy    <       0.00025616 Ry

     iteration #  6     ecut=    20.00 Ry     beta= 0.70
     Davidson diagonalization with overlap
     ethr =  3.20E-06,  avg # of iterations =  2.0

     negative rho (up, down):  4.625E-08 0.000E+00

     total cpu time spent up to now is        1.2 secs

     total energy              =     -15.59335323 Ry
     estimated scf accuracy    <       0.00041693 Ry

     iteration #  7     ecut=    20.00 Ry     beta= 0.70
     Davidson diagonalization with overlap
     ethr =  3.20E-06,  avg # of iterations =  2.0

     negative rho (up, down):  4.523E-08 0.000E+00

     total cpu time spent up to now is        1.4 secs

     total energy              =     -15.59339805 Ry
     estimated scf accuracy    <       0.00001926 Ry

     iteration #  8     ecut=    20.00 Ry     beta= 0.70
     Davidson diagonalization with overlap
     ethr =  2.41E-07,  avg # of iterations =  1.0

     negative rho (up, down):  2.586E-08 0.000E+00

     total cpu time spent up to now is        1.6 secs

     total energy              =     -15.59339324 Ry
     estimated scf accuracy    <       0.00001818 Ry

     iteration #  9     ecut=    20.00 Ry     beta= 0.70
     Davidson diagonalization with overlap
     ethr =  2.27E-07,  avg # of iterations =  1.0

     total cpu time spent up to now is        1.7 secs

     total energy              =     -15.59339146 Ry
     estimated scf accuracy    <       0.00000754 Ry

     iteration # 10     ecut=    20.00 Ry     beta= 0.70
     Davidson diagonalization with overlap
     ethr =  9.42E-08,  avg # of iterations =  1.0

     total cpu time spent up to now is        1.9 secs

     total energy              =     -15.59339329 Ry
     estimated scf accuracy    <       0.00000202 Ry

     iteration # 11     ecut=    20.00 Ry     beta= 0.70
     Davidson diagonalization with overlap
     ethr =  2.53E-08,  avg # of iterations =  2.0

     total cpu time spent up to now is        2.1 secs

     total energy              =     -15.59339734 Ry
     estimated scf accuracy    <       0.00000562 Ry

     iteration # 12     ecut=    20.00 Ry     beta= 0.70
     Davidson diagonalization with overlap
     ethr =  2.53E-08,  avg # of iterations =  2.0

     total cpu time spent up to now is        2.3 secs

     total energy              =     -15.59340448 Ry
     estimated scf accuracy    <       0.00002103 Ry

     iteration # 13     ecut=    20.00 Ry     beta= 0.70
     Davidson diagonalization with overlap
     ethr =  2.53E-08,  avg # of iterations =  2.0

     total cpu time spent up to now is        2.4 secs

     total energy              =     -15.59338560 Ry
     estimated scf accuracy    <       0.00003766 Ry

     iteration # 14     ecut=    20.00 Ry     beta= 0.70
     Davidson diagonalization with overlap
     ethr =  2.53E-08,  avg # of iterations =  3.0

     total cpu time spent up to now is        2.6 secs

     End of self-consistent calculation

          k = 0.0000 0.0000 0.0000 ( 17229 PWs)   bands (ev):

   -17.2332  -9.3456  -9.3451  -9.3450

     highest occupied level (ev):    -9.3450

!    total energy              =     -15.59339135 Ry
     estimated scf accuracy    <       0.00000017 Ry

     The total energy is the sum of the following terms:
     one-electron contribution =     -45.78620227 Ry
     hartree contribution      =      23.54406144 Ry
     xc contribution           =      -6.09068832 Ry
     ewald contribution        =      12.73943780 Ry

     convergence has been achieved in  14 iterations
 
     init_run     :      0.16s CPU      0.22s WALL (       1 calls)
     electrons    :      2.32s CPU      2.37s WALL (       1 calls)

     Called by init_run:
     wfcinit      :      0.05s CPU      0.06s WALL (       1 calls)
     potinit      :      0.05s CPU      0.06s WALL (       1 calls)
     hinit0       :      0.03s CPU      0.05s WALL (       1 calls)

     Called by electrons:
     c_bands      :      0.92s CPU      0.93s WALL (      14 calls)
     sum_band     :      0.38s CPU      0.39s WALL (      14 calls)
     v_of_rho     :      0.41s CPU      0.42s WALL (      15 calls)
     mix_rho      :      0.54s CPU      0.58s WALL (      14 calls)

     Called by c_bands:
     init_us_2    :      0.02s CPU      0.02s WALL (      29 calls)
     init_us_2:cp :      0.02s CPU      0.02s WALL (      29 calls)
     regterg      :      0.91s CPU      0.91s WALL (      14 calls)

     Called by *egterg:
     rdiaghg      :      0.00s CPU      0.00s WALL (      39 calls)
     h_psi        :      0.90s CPU      0.90s WALL (      40 calls)
     g_psi        :      0.01s CPU      0.01s WALL (      25 calls)

     Called by h_psi:
     h_psi:calbec :      0.01s CPU      0.01s WALL (      40 calls)
     vloc_psi     :      0.88s CPU      0.88s WALL (      40 calls)
     add_vuspsi   :      0.01s CPU      0.01s WALL (      40 calls)

     General routines
     calbec       :      0.01s CPU      0.01s WALL (      40 calls)
     fft          :      0.22s CPU      0.22s WALL (      44 calls)
     ffts         :      0.06s CPU      0.06s WALL (      14 calls)
     fftw         :      0.84s CPU      0.84s WALL (     190 calls)
 
     Parallel routines
 
     PWSCF        :      2.49s CPU      2.61s WALL

 
   This run was terminated on:  16:41:57  21Apr2023            

=------------------------------------------------------------------------------=
   JOB DONE.
=------------------------------------------------------------------------------=
