
     Program PWSCF v.7.1 starts on 21Apr2023 at 16:42: 3 

     This program is part of the open-source Quantum ESPRESSO suite
     for quantum simulation of materials; please cite
         "P. Giannozzi et al., J. Phys.:Condens. Matter 21 395502 (2009);
         "P. Giannozzi et al., J. Phys.:Condens. Matter 29 465901 (2017);
         "P. Giannozzi et al., J. Chem. Phys. 152 154105 (2020);
          URL http://www.quantum-espresso.org", 
     in publications or presentations arising from this work. More details at
     http://www.quantum-espresso.org/quote

     Parallel version (MPI), running on     1 processors

     MPI processes distributed on     1 nodes
     3779 MiB available memory on the printing compute node when the environment starts
 
     Waiting for input...
     Reading input from standard input

     Current dimensions of program PWSCF are:
     Max number of different atomic species (ntypx) = 10
     Max number of k-points (npk) =  40000
     Max angular momentum in pseudopotentials (lmaxx) =  4
     file H.pz-vbc.UPF: wavefunction(s)  1S renormalized

     gamma-point specific algorithms are used
 
     Subspace diagonalization in iterative solution of the eigenvalue problem:
     a serial algorithm will be used

 
     G-vector sticks info
     --------------------
     sticks:   dense  smooth     PW     G-vecs:    dense   smooth      PW
     Sum        7685    7685   1917               505887   505887   63077
 
     Using Slab Decomposition
 


     bravais-lattice index     =            1
     lattice parameter (alat)  =      28.3459  a.u.
     unit-cell volume          =   22775.6289 (a.u.)^3
     number of atoms/cell      =            5
     number of atomic types    =            2
     number of electrons       =         8.00
     number of Kohn-Sham states=            4
     kinetic-energy cutoff     =      30.0000  Ry
     charge density cutoff     =     120.0000  Ry
     scf convergence threshold =      1.0E-06
     mixing beta               =       0.7000
     number of iterations used =            8  plain     mixing
     Exchange-correlation=  SLA  PZ   NOGX NOGC
                           (   1   1   0   0   0   0   0)

     celldm(1)=  28.345892  celldm(2)=   0.000000  celldm(3)=   0.000000
     celldm(4)=   0.000000  celldm(5)=   0.000000  celldm(6)=   0.000000

     crystal axes: (cart. coord. in units of alat)
               a(1) = (   1.000000   0.000000   0.000000 )  
               a(2) = (   0.000000   1.000000   0.000000 )  
               a(3) = (   0.000000   0.000000   1.000000 )  

     reciprocal axes: (cart. coord. in units 2 pi/alat)
               b(1) = (  1.000000  0.000000  0.000000 )  
               b(2) = (  0.000000  1.000000  0.000000 )  
               b(3) = (  0.000000  0.000000  1.000000 )  


     PseudoPot. # 1 for C  read from file:
     ./C.pz-vbc.UPF
     MD5 check sum: ab53dd623bfeb79c5a7b057bc96eae20
     Pseudo is Norm-conserving, Zval =  4.0
     Generated by new atomic code, or converted to UPF format
     Using radial grid of  269 points,  1 beta functions with: 
                l(1) =   0

     PseudoPot. # 2 for H  read from file:
     ./H.pz-vbc.UPF
     MD5 check sum: 90becb985b714f09656c73597998d266
     Pseudo is Norm-conserving, Zval =  1.0
     Generated by new atomic code, or converted to UPF format
     Using radial grid of  131 points,  0 beta functions with: 

     atomic species   valence    mass     pseudopotential
        C              4.00    12.01100     C ( 1.00)
        H              1.00     1.00800     H ( 1.00)

      2 Sym. Ops. (no inversion) found



   Cartesian axes

     site n.     atom                  positions (alat units)
         1           C   tau(   1) = (   0.0000000   0.0000000   0.0000000  )
         2           H   tau(   2) = (   0.0000000   0.0000000   0.0726000  )
         3           H   tau(   3) = (   0.0684479   0.0000000  -0.0242000  )
         4           H   tau(   4) = (  -0.0342240  -0.0592777  -0.0242000  )
         5           H   tau(   5) = (  -0.0342240   0.0592777  -0.0242000  )

     number of k points=     1
                       cart. coord. in units 2pi/alat
        k(    1) = (   0.0000000   0.0000000   0.0000000), wk =   2.0000000

     Dense  grid:   252944 G-vectors     FFT dimensions: ( 100, 100, 100)

     Estimated max dynamical RAM per process >     191.70 MB

     Initial potential from superposition of free atoms

     starting charge       7.9999, renormalised to       8.0000

     negative rho (up, down):  2.857E-02 0.000E+00
     Starting wfcs are    8 randomized atomic wfcs

     total cpu time spent up to now is        0.4 secs

     Self-consistent Calculation

     iteration #  1     ecut=    30.00 Ry     beta= 0.70
     Davidson diagonalization with overlap
     ethr =  1.00E-02,  avg # of iterations =  2.0

     negative rho (up, down):  8.382E-03 0.000E+00

     total cpu time spent up to now is        0.8 secs

     total energy              =     -15.67916441 Ry
     estimated scf accuracy    <       0.65427475 Ry

     iteration #  2     ecut=    30.00 Ry     beta= 0.70
     Davidson diagonalization with overlap
     ethr =  8.18E-03,  avg # of iterations =  2.0

     negative rho (up, down):  4.206E-03 0.000E+00

     total cpu time spent up to now is        1.1 secs

     total energy              =     -15.84706023 Ry
     estimated scf accuracy    <       0.17207465 Ry

     iteration #  3     ecut=    30.00 Ry     beta= 0.70
     Davidson diagonalization with overlap
     ethr =  2.15E-03,  avg # of iterations =  2.0

     negative rho (up, down):  3.417E-04 0.000E+00

     total cpu time spent up to now is        1.4 secs

     total energy              =     -15.87089010 Ry
     estimated scf accuracy    <       0.00462956 Ry

     iteration #  4     ecut=    30.00 Ry     beta= 0.70
     Davidson diagonalization with overlap
     ethr =  5.79E-05,  avg # of iterations =  2.0

     negative rho (up, down):  3.594E-04 0.000E+00

     total cpu time spent up to now is        1.8 secs

     total energy              =     -15.87216533 Ry
     estimated scf accuracy    <       0.00244509 Ry

     iteration #  5     ecut=    30.00 Ry     beta= 0.70
     Davidson diagonalization with overlap
     ethr =  3.06E-05,  avg # of iterations =  2.0

     negative rho (up, down):  8.235E-05 0.000E+00

     total cpu time spent up to now is        2.1 secs

     total energy              =     -15.87241540 Ry
     estimated scf accuracy    <       0.00002316 Ry

     iteration #  6     ecut=    30.00 Ry     beta= 0.70
     Davidson diagonalization with overlap
     ethr =  2.89E-07,  avg # of iterations =  4.0

     total cpu time spent up to now is        2.5 secs

     total energy              =     -15.87235413 Ry
     estimated scf accuracy    <       0.00048371 Ry

     iteration #  7     ecut=    30.00 Ry     beta= 0.70
     Davidson diagonalization with overlap
     ethr =  2.89E-07,  avg # of iterations =  3.0

     negative rho (up, down):  1.840E-08 0.000E+00

     total cpu time spent up to now is        2.9 secs

     total energy              =     -15.87242101 Ry
     estimated scf accuracy    <       0.00000322 Ry

     iteration #  8     ecut=    30.00 Ry     beta= 0.70
     Davidson diagonalization with overlap
     ethr =  4.03E-08,  avg # of iterations =  1.0

     total cpu time spent up to now is        3.3 secs

     total energy              =     -15.87242073 Ry
     estimated scf accuracy    <       0.00000283 Ry

     iteration #  9     ecut=    30.00 Ry     beta= 0.70
     Davidson diagonalization with overlap
     ethr =  3.54E-08,  avg # of iterations =  2.0

     total cpu time spent up to now is        3.5 secs

     End of self-consistent calculation

          k = 0.0000 0.0000 0.0000 ( 31539 PWs)   bands (ev):

   -17.0154  -9.4162  -9.4158  -9.4153

     highest occupied level (ev):    -9.4153

!    total energy              =     -15.87242167 Ry
     estimated scf accuracy    <       0.00000017 Ry

     The total energy is the sum of the following terms:
     one-electron contribution =     -46.30653942 Ry
     hartree contribution      =      23.84168282 Ry
     xc contribution           =      -6.14700285 Ry
     ewald contribution        =      12.73943777 Ry

     convergence has been achieved in   9 iterations
 
     init_run     :      0.32s CPU      0.42s WALL (       1 calls)
     electrons    :      3.03s CPU      3.11s WALL (       1 calls)

     Called by init_run:
     wfcinit      :      0.10s CPU      0.11s WALL (       1 calls)
     potinit      :      0.09s CPU      0.14s WALL (       1 calls)
     hinit0       :      0.05s CPU      0.09s WALL (       1 calls)

     Called by electrons:
     c_bands      :      1.39s CPU      1.40s WALL (       9 calls)
     sum_band     :      0.52s CPU      0.52s WALL (       9 calls)
     v_of_rho     :      0.51s CPU      0.54s WALL (      10 calls)
     mix_rho      :      0.53s CPU      0.60s WALL (       9 calls)

     Called by c_bands:
     init_us_2    :      0.02s CPU      0.02s WALL (      19 calls)
     init_us_2:cp :      0.02s CPU      0.02s WALL (      19 calls)
     regterg      :      1.38s CPU      1.38s WALL (       9 calls)

     Called by *egterg:
     rdiaghg      :      0.00s CPU      0.00s WALL (      29 calls)
     h_psi        :      1.38s CPU      1.39s WALL (      30 calls)
     g_psi        :      0.01s CPU      0.01s WALL (      20 calls)

     Called by h_psi:
     h_psi:calbec :      0.01s CPU      0.01s WALL (      30 calls)
     vloc_psi     :      1.35s CPU      1.36s WALL (      30 calls)
     add_vuspsi   :      0.01s CPU      0.01s WALL (      30 calls)

     General routines
     calbec       :      0.01s CPU      0.01s WALL (      30 calls)
     fft          :      0.26s CPU      0.26s WALL (      29 calls)
     ffts         :      0.07s CPU      0.07s WALL (       9 calls)
     fftw         :      1.23s CPU      1.23s WALL (     140 calls)
 
     Parallel routines
 
     PWSCF        :      3.35s CPU      3.56s WALL

 
   This run was terminated on:  16:42: 6  21Apr2023            

=------------------------------------------------------------------------------=
   JOB DONE.
=------------------------------------------------------------------------------=
