
     Program PWSCF v.7.1 starts on 21Apr2023 at 16:41:52 

     This program is part of the open-source Quantum ESPRESSO suite
     for quantum simulation of materials; please cite
         "P. Giannozzi et al., J. Phys.:Condens. Matter 21 395502 (2009);
         "P. Giannozzi et al., J. Phys.:Condens. Matter 29 465901 (2017);
         "P. Giannozzi et al., J. Chem. Phys. 152 154105 (2020);
          URL http://www.quantum-espresso.org", 
     in publications or presentations arising from this work. More details at
     http://www.quantum-espresso.org/quote

     Parallel version (MPI), running on     1 processors

     MPI processes distributed on     1 nodes
     3778 MiB available memory on the printing compute node when the environment starts
 
     Waiting for input...
     Reading input from standard input

     Current dimensions of program PWSCF are:
     Max number of different atomic species (ntypx) = 10
     Max number of k-points (npk) =  40000
     Max angular momentum in pseudopotentials (lmaxx) =  4
     file H.pz-vbc.UPF: wavefunction(s)  1S renormalized

     gamma-point specific algorithms are used
 
     Subspace diagonalization in iterative solution of the eigenvalue problem:
     a serial algorithm will be used

 
     G-vector sticks info
     --------------------
     sticks:   dense  smooth     PW     G-vecs:    dense   smooth      PW
     Sum        2561    2561    641                97521    97521   12149
 
     Using Slab Decomposition
 


     bravais-lattice index     =            1
     lattice parameter (alat)  =      28.3459  a.u.
     unit-cell volume          =   22775.6289 (a.u.)^3
     number of atoms/cell      =            5
     number of atomic types    =            2
     number of electrons       =         8.00
     number of Kohn-Sham states=            4
     kinetic-energy cutoff     =      10.0000  Ry
     charge density cutoff     =      40.0000  Ry
     scf convergence threshold =      1.0E-06
     mixing beta               =       0.7000
     number of iterations used =            8  plain     mixing
     Exchange-correlation=  SLA  PZ   NOGX NOGC
                           (   1   1   0   0   0   0   0)

     celldm(1)=  28.345892  celldm(2)=   0.000000  celldm(3)=   0.000000
     celldm(4)=   0.000000  celldm(5)=   0.000000  celldm(6)=   0.000000

     crystal axes: (cart. coord. in units of alat)
               a(1) = (   1.000000   0.000000   0.000000 )  
               a(2) = (   0.000000   1.000000   0.000000 )  
               a(3) = (   0.000000   0.000000   1.000000 )  

     reciprocal axes: (cart. coord. in units 2 pi/alat)
               b(1) = (  1.000000  0.000000  0.000000 )  
               b(2) = (  0.000000  1.000000  0.000000 )  
               b(3) = (  0.000000  0.000000  1.000000 )  


     PseudoPot. # 1 for C  read from file:
     ./C.pz-vbc.UPF
     MD5 check sum: ab53dd623bfeb79c5a7b057bc96eae20
     Pseudo is Norm-conserving, Zval =  4.0
     Generated by new atomic code, or converted to UPF format
     Using radial grid of  269 points,  1 beta functions with: 
                l(1) =   0

     PseudoPot. # 2 for H  read from file:
     ./H.pz-vbc.UPF
     MD5 check sum: 90becb985b714f09656c73597998d266
     Pseudo is Norm-conserving, Zval =  1.0
     Generated by new atomic code, or converted to UPF format
     Using radial grid of  131 points,  0 beta functions with: 

     atomic species   valence    mass     pseudopotential
        C              4.00    12.01100     C ( 1.00)
        H              1.00     1.00800     H ( 1.00)

      2 Sym. Ops. (no inversion) found



   Cartesian axes

     site n.     atom                  positions (alat units)
         1           C   tau(   1) = (   0.0000000   0.0000000   0.0000000  )
         2           H   tau(   2) = (   0.0000000   0.0000000   0.0726000  )
         3           H   tau(   3) = (   0.0684479   0.0000000  -0.0242000  )
         4           H   tau(   4) = (  -0.0342240  -0.0592777  -0.0242000  )
         5           H   tau(   5) = (  -0.0342240   0.0592777  -0.0242000  )

     number of k points=     1
                       cart. coord. in units 2pi/alat
        k(    1) = (   0.0000000   0.0000000   0.0000000), wk =   2.0000000

     Dense  grid:    48761 G-vectors     FFT dimensions: (  60,  60,  60)

     Estimated max dynamical RAM per process >      38.55 MB

     Initial potential from superposition of free atoms

     starting charge       7.9999, renormalised to       8.0000

     negative rho (up, down):  4.096E-01 0.000E+00
     Starting wfcs are    8 randomized atomic wfcs

     total cpu time spent up to now is        0.2 secs

     Self-consistent Calculation

     iteration #  1     ecut=    10.00 Ry     beta= 0.70
     Davidson diagonalization with overlap
     ethr =  1.00E-02,  avg # of iterations =  2.0

     negative rho (up, down):  1.201E-01 0.000E+00

     total cpu time spent up to now is        0.2 secs

     total energy              =     -14.90363318 Ry
     estimated scf accuracy    <       0.24861414 Ry

     iteration #  2     ecut=    10.00 Ry     beta= 0.70
     Davidson diagonalization with overlap
     ethr =  3.11E-03,  avg # of iterations =  2.0

     negative rho (up, down):  3.732E-02 0.000E+00

     total cpu time spent up to now is        0.3 secs

     total energy              =     -14.92608133 Ry
     estimated scf accuracy    <       0.01849391 Ry

     iteration #  3     ecut=    10.00 Ry     beta= 0.70
     Davidson diagonalization with overlap
     ethr =  2.31E-04,  avg # of iterations =  2.0

     negative rho (up, down):  1.897E-03 0.000E+00

     total cpu time spent up to now is        0.4 secs

     total energy              =     -14.92816763 Ry
     estimated scf accuracy    <       0.00146200 Ry

     iteration #  4     ecut=    10.00 Ry     beta= 0.70
     Davidson diagonalization with overlap
     ethr =  1.83E-05,  avg # of iterations =  2.0

     negative rho (up, down):  4.465E-04 0.000E+00

     total cpu time spent up to now is        0.4 secs

     total energy              =     -14.92832269 Ry
     estimated scf accuracy    <       0.00001358 Ry

     iteration #  5     ecut=    10.00 Ry     beta= 0.70
     Davidson diagonalization with overlap
     ethr =  1.70E-07,  avg # of iterations =  2.0

     total cpu time spent up to now is        0.5 secs

     total energy              =     -14.92832734 Ry
     estimated scf accuracy    <       0.00000200 Ry

     iteration #  6     ecut=    10.00 Ry     beta= 0.70
     Davidson diagonalization with overlap
     ethr =  2.50E-08,  avg # of iterations =  2.0

     total cpu time spent up to now is        0.5 secs

     End of self-consistent calculation

          k = 0.0000 0.0000 0.0000 (  6075 PWs)   bands (ev):

   -18.1125  -9.1532  -9.1528  -9.1526

     highest occupied level (ev):    -9.1526

!    total energy              =     -14.92832744 Ry
     estimated scf accuracy    <       0.00000008 Ry

     The total energy is the sum of the following terms:
     one-electron contribution =     -44.51372548 Ry
     hartree contribution      =      22.78835553 Ry
     xc contribution           =      -5.94239529 Ry
     ewald contribution        =      12.73943780 Ry

     convergence has been achieved in   6 iterations
 
     init_run     :      0.08s CPU      0.11s WALL (       1 calls)
     electrons    :      0.32s CPU      0.34s WALL (       1 calls)

     Called by init_run:
     wfcinit      :      0.02s CPU      0.03s WALL (       1 calls)
     potinit      :      0.03s CPU      0.04s WALL (       1 calls)
     hinit0       :      0.02s CPU      0.03s WALL (       1 calls)

     Called by electrons:
     c_bands      :      0.13s CPU      0.14s WALL (       6 calls)
     sum_band     :      0.05s CPU      0.05s WALL (       6 calls)
     v_of_rho     :      0.09s CPU      0.10s WALL (       7 calls)
     mix_rho      :      0.05s CPU      0.06s WALL (       6 calls)

     Called by c_bands:
     init_us_2    :      0.00s CPU      0.00s WALL (      13 calls)
     init_us_2:cp :      0.00s CPU      0.00s WALL (      13 calls)
     regterg      :      0.13s CPU      0.14s WALL (       6 calls)

     Called by *egterg:
     rdiaghg      :      0.00s CPU      0.00s WALL (      18 calls)
     h_psi        :      0.14s CPU      0.14s WALL (      19 calls)
     g_psi        :      0.00s CPU      0.00s WALL (      12 calls)

     Called by h_psi:
     h_psi:calbec :      0.00s CPU      0.00s WALL (      19 calls)
     vloc_psi     :      0.13s CPU      0.14s WALL (      19 calls)
     add_vuspsi   :      0.00s CPU      0.00s WALL (      19 calls)

     General routines
     calbec       :      0.00s CPU      0.00s WALL (      19 calls)
     fft          :      0.03s CPU      0.03s WALL (      20 calls)
     ffts         :      0.01s CPU      0.01s WALL (       6 calls)
     fftw         :      0.12s CPU      0.12s WALL (      90 calls)
 
     Parallel routines
 
     PWSCF        :      0.43s CPU      0.50s WALL

 
   This run was terminated on:  16:41:53  21Apr2023            

=------------------------------------------------------------------------------=
   JOB DONE.
=------------------------------------------------------------------------------=
