
     Program PWSCF v.7.1 starts on  5Jul2024 at 17:17:51 

     This program is part of the open-source Quantum ESPRESSO suite
     for quantum simulation of materials; please cite
         "P. Giannozzi et al., J. Phys.:Condens. Matter 21 395502 (2009);
         "P. Giannozzi et al., J. Phys.:Condens. Matter 29 465901 (2017);
         "P. Giannozzi et al., J. Chem. Phys. 152 154105 (2020);
          URL http://www.quantum-espresso.org", 
     in publications or presentations arising from this work. More details at
     http://www.quantum-espresso.org/quote

     Parallel version (MPI), running on     1 processors

     MPI processes distributed on     1 nodes
     4347 MiB available memory on the printing compute node when the environment starts
 
     Waiting for input...
     Reading input from standard input

     Current dimensions of program PWSCF are:
     Max number of different atomic species (ntypx) = 10
     Max number of k-points (npk) =  40000
     Max angular momentum in pseudopotentials (lmaxx) =  4
 
     Subspace diagonalization in iterative solution of the eigenvalue problem:
     a serial algorithm will be used

 
     G-vector sticks info
     --------------------
     sticks:   dense  smooth     PW     G-vecs:    dense   smooth      PW
     Sum         361     361    121                44407    44407    8109
 
     Using Slab Decomposition
 


     bravais-lattice index     =            4
     lattice parameter (alat)  =       4.6412  a.u.
     unit-cell volume          =     705.0403 (a.u.)^3
     number of atoms/cell      =            2
     number of atomic types    =            1
     number of electrons       =         8.00
     number of Kohn-Sham states=            4
     kinetic-energy cutoff     =      60.0000  Ry
     charge density cutoff     =     240.0000  Ry
     scf convergence threshold =      1.0E-06
     mixing beta               =       0.7000
     number of iterations used =            8  plain     mixing
     energy convergence thresh.=      1.0E-04
     force convergence thresh. =      1.0E-03
     press convergence thresh. =      5.0E-01
     Exchange-correlation=  SLA  PZ   NOGX NOGC
                           (   1   1   0   0   0   0   0)
     nstep                     =           50


     celldm(1)=   4.641167  celldm(2)=   0.000000  celldm(3)=   8.143322
     celldm(4)=   0.000000  celldm(5)=   0.000000  celldm(6)=   0.000000

     crystal axes: (cart. coord. in units of alat)
               a(1) = (   1.000000   0.000000   0.000000 )  
               a(2) = (  -0.500000   0.866025   0.000000 )  
               a(3) = (   0.000000   0.000000   8.143322 )  

     reciprocal axes: (cart. coord. in units 2 pi/alat)
               b(1) = (  1.000000  0.577350  0.000000 )  
               b(2) = (  0.000000  1.154701  0.000000 )  
               b(3) = (  0.000000  0.000000  0.122800 )  


     PseudoPot. # 1 for C  read from file:
     ./C.pz-vbc.UPF
     MD5 check sum: ab53dd623bfeb79c5a7b057bc96eae20
     Pseudo is Norm-conserving, Zval =  4.0
     Generated by new atomic code, or converted to UPF format
     Using radial grid of  269 points,  1 beta functions with: 
                l(1) =   0

     atomic species   valence    mass     pseudopotential
        C              4.00    12.01100     C ( 1.00)

     24 Sym. Ops., with inversion, found (12 have fractional translation)



   Cartesian axes

     site n.     atom                  positions (alat units)
         1           C   tau(   1) = (   0.0000000   0.0000000   0.0000000  )
         2           C   tau(   2) = (   0.0000000   0.5773503   0.0000000  )

     number of k points=     6
                       cart. coord. in units 2pi/alat
        k(    1) = (   0.1250000   0.2165064   0.0000000), wk =   0.2500000
        k(    2) = (   0.1250000   0.5051815   0.0000000), wk =   0.5000000
        k(    3) = (   0.1250000  -0.3608439   0.0000000), wk =   0.5000000
        k(    4) = (   0.1250000  -0.0721688   0.0000000), wk =   0.2500000
        k(    5) = (   0.3750000   0.6495191   0.0000000), wk =   0.2500000
        k(    6) = (   0.3750000  -0.2165064   0.0000000), wk =   0.2500000

     Dense  grid:    44407 G-vectors     FFT dimensions: (  24,  24, 192)

     Estimated max dynamical RAM per process >      29.97 MB

     Initial potential from superposition of free atoms

     starting charge       7.9999, renormalised to       8.0000

     negative rho (up, down):  1.960E-03 0.000E+00
     Starting wfcs are    8 randomized atomic wfcs

     total cpu time spent up to now is        0.2 secs

     Self-consistent Calculation

     iteration #  1     ecut=    60.00 Ry     beta= 0.70
     Davidson diagonalization with overlap
     ethr =  1.00E-02,  avg # of iterations =  2.0

     negative rho (up, down):  5.395E-04 0.000E+00

     total cpu time spent up to now is        0.4 secs

     total energy              =     -22.74827990 Ry
     estimated scf accuracy    <       0.20465410 Ry

     iteration #  2     ecut=    60.00 Ry     beta= 0.70
     Davidson diagonalization with overlap
     ethr =  2.56E-03,  avg # of iterations =  2.0

     negative rho (up, down):  1.371E-04 0.000E+00

     total cpu time spent up to now is        0.5 secs

     total energy              =     -22.77599538 Ry
     estimated scf accuracy    <       0.00205373 Ry

     iteration #  3     ecut=    60.00 Ry     beta= 0.70
     Davidson diagonalization with overlap
     ethr =  2.57E-05,  avg # of iterations =  2.2

     negative rho (up, down):  6.361E-06 0.000E+00

     total cpu time spent up to now is        0.6 secs

     total energy              =     -22.77641361 Ry
     estimated scf accuracy    <       0.00015895 Ry

     iteration #  4     ecut=    60.00 Ry     beta= 0.70
     Davidson diagonalization with overlap
     ethr =  1.99E-06,  avg # of iterations =  2.5

     negative rho (up, down):  1.180E-07 0.000E+00

     total cpu time spent up to now is        0.7 secs

     total energy              =     -22.77644843 Ry
     estimated scf accuracy    <       0.00000260 Ry

     iteration #  5     ecut=    60.00 Ry     beta= 0.70
     Davidson diagonalization with overlap
     ethr =  3.25E-08,  avg # of iterations =  4.5

     total cpu time spent up to now is        0.9 secs

     End of self-consistent calculation

          k = 0.1250 0.2165 0.0000 (  5539 PWs)   bands (ev):

   -20.8934  -9.0648  -8.8530  -7.8619

          k = 0.1250 0.5052 0.0000 (  5536 PWs)   bands (ev):

   -17.4038 -14.6169 -10.1610  -5.2240

          k = 0.1250-0.3608 0.0000 (  5541 PWs)   bands (ev):

   -19.4667 -11.6204  -9.3926  -7.3711

          k = 0.1250-0.0722 0.0000 (  5548 PWs)   bands (ev):

   -21.6170  -9.9469  -7.0792  -6.4287

          k = 0.3750 0.6495 0.0000 (  5504 PWs)   bands (ev):

   -15.7787 -15.0528 -12.5030  -3.6437

          k = 0.3750-0.2165 0.0000 (  5546 PWs)   bands (ev):

   -18.7635 -13.3151  -8.7904  -6.6095

     highest occupied level (ev):    -3.6437

!    total energy              =     -22.77645136 Ry
     estimated scf accuracy    <       0.00000011 Ry

     The total energy is the sum of the following terms:
     one-electron contribution =    -226.02742949 Ry
     hartree contribution      =     114.08701375 Ry
     xc contribution           =      -6.93711175 Ry
     ewald contribution        =      96.10107613 Ry

     convergence has been achieved in   5 iterations

     Forces acting on atoms (cartesian axes, Ry/au):

     atom    1 type  1   force =     0.00000000   -0.00000000    0.00000000
     atom    2 type  1   force =    -0.00000000    0.00000000    0.00000000

     Total force =     0.000000     Total SCF correction =     0.000000


     Computing stress (Cartesian axis) and pressure

          total   stress  (Ry/bohr**3)                   (kbar)     P=      -20.15
  -0.00016195  -0.00000000   0.00000000          -23.82       -0.00        0.00
  -0.00000000  -0.00016195   0.00000000           -0.00      -23.82        0.00
   0.00000000  -0.00000000  -0.00008698            0.00       -0.00      -12.79


     BFGS Geometry Optimization
     Energy error            =      0.0E+00 Ry
     Gradient error          =      1.1E-29 Ry/Bohr
     Cell gradient error     =      2.4E+01 kbar

     number of scf cycles    =   1
     number of bfgs steps    =   0

     enthalpy           new  =     -22.7764513573 Ry

     new trust radius        =       0.0215004030 bohr
     new conv_thr            =       0.0000010000 Ry

     new unit-cell volume =    699.34296 a.u.^3 (   103.63193 Ang^3 )
     density =      0.38491 g/cm^3

CELL_PARAMETERS (alat=  4.64116736)
   0.995951356  -0.000000000   0.000000000
  -0.497975678   0.862519175   0.000000000
   0.000000000   0.000000000   8.143322476

ATOMIC_POSITIONS (crystal)
C            -0.0000000000       -0.0000000000        0.0000000000
C             0.3333333333        0.6666666667        0.0000000000



     Writing config-only to output data dir ./pwscf.save/
     NEW-OLD atomic charge density approx. for the potential

     negative rho (up, down):  3.112E-04 0.000E+00
     extrapolated charge    7.93483, renormalised to    8.00000

     total cpu time spent up to now is        1.2 secs

     Self-consistent Calculation

     iteration #  1     ecut=    60.00 Ry     beta= 0.70
     Davidson diagonalization with overlap
     ethr =  1.00E-06,  avg # of iterations =  3.8

     negative rho (up, down):  8.630E-05 0.000E+00

     total cpu time spent up to now is        1.4 secs

     total energy              =     -22.77525535 Ry
     estimated scf accuracy    <       0.00102298 Ry

     iteration #  2     ecut=    60.00 Ry     beta= 0.70
     Davidson diagonalization with overlap
     ethr =  1.28E-05,  avg # of iterations =  3.0

     negative rho (up, down):  5.179E-05 0.000E+00

     total cpu time spent up to now is        1.5 secs

     total energy              =     -22.77725279 Ry
     estimated scf accuracy    <       0.00095920 Ry

     iteration #  3     ecut=    60.00 Ry     beta= 0.70
     Davidson diagonalization with overlap
     ethr =  1.20E-05,  avg # of iterations =  1.0

     negative rho (up, down):  2.669E-05 0.000E+00

     total cpu time spent up to now is        1.6 secs

     total energy              =     -22.77720137 Ry
     estimated scf accuracy    <       0.00021813 Ry

     iteration #  4     ecut=    60.00 Ry     beta= 0.70
     Davidson diagonalization with overlap
     ethr =  2.73E-06,  avg # of iterations =  2.0

     negative rho (up, down):  2.214E-05 0.000E+00

     total cpu time spent up to now is        1.7 secs

     total energy              =     -22.77721130 Ry
     estimated scf accuracy    <       0.00004421 Ry

     iteration #  5     ecut=    60.00 Ry     beta= 0.70
     Davidson diagonalization with overlap
     ethr =  5.53E-07,  avg # of iterations =  1.0

     negative rho (up, down):  1.070E-05 0.000E+00

     total cpu time spent up to now is        1.8 secs

     total energy              =     -22.77720355 Ry
     estimated scf accuracy    <       0.00003395 Ry

     iteration #  6     ecut=    60.00 Ry     beta= 0.70
     Davidson diagonalization with overlap
     ethr =  4.24E-07,  avg # of iterations =  1.0

     total cpu time spent up to now is        1.9 secs

     total energy              =     -22.77719479 Ry
     estimated scf accuracy    <       0.00001759 Ry

     iteration #  7     ecut=    60.00 Ry     beta= 0.70
     Davidson diagonalization with overlap
     ethr =  2.20E-07,  avg # of iterations =  2.0

     total cpu time spent up to now is        2.0 secs

     End of self-consistent calculation

          k = 0.1255 0.2174 0.0000 (  5539 PWs)   bands (ev):

   -20.9413  -9.0931  -8.8238  -7.8443

          k = 0.1255 0.5072 0.0000 (  5536 PWs)   bands (ev):

   -17.4243 -14.6302 -10.1617  -5.2108

          k = 0.1255-0.3623 0.0000 (  5541 PWs)   bands (ev):

   -19.5045 -11.6094  -9.3879  -7.3819

          k = 0.1255-0.0725 0.0000 (  5548 PWs)   bands (ev):

   -21.6698  -9.9839  -7.0430  -6.3947

          k = 0.3765 0.6522 0.0000 (  5504 PWs)   bands (ev):

   -15.7759 -15.0717 -12.5266  -3.6129

          k = 0.3765-0.2174 0.0000 (  5546 PWs)   bands (ev):

   -18.7958 -13.3183  -8.7823  -6.6119

     highest occupied level (ev):    -3.6129

!    total energy              =     -22.77719808 Ry
     estimated scf accuracy    <       0.00000002 Ry

     The total energy is the sum of the following terms:
     one-electron contribution =    -227.90558346 Ry
     hartree contribution      =     115.03732735 Ry
     xc contribution           =      -6.95490335 Ry
     ewald contribution        =      97.04596138 Ry

     convergence has been achieved in   7 iterations

     Forces acting on atoms (cartesian axes, Ry/au):

     atom    1 type  1   force =    -0.00000000   -0.00000000    0.00000000
     atom    2 type  1   force =     0.00000000    0.00000000    0.00000000

     Total force =     0.000000     Total SCF correction =     0.000000


     Computing stress (Cartesian axis) and pressure

          total   stress  (Ry/bohr**3)                   (kbar)     P=      -14.34
  -0.00010323  -0.00000000   0.00000000          -15.19       -0.00        0.00
  -0.00000000  -0.00010323   0.00000000           -0.00      -15.19        0.00
   0.00000000   0.00000000  -0.00008605            0.00        0.00      -12.66

     Energy error            =      7.5E-04 Ry
     Gradient error          =      2.4E-30 Ry/Bohr
     Cell gradient error     =      1.5E+01 kbar

     number of scf cycles    =   2
     number of bfgs steps    =   1

     enthalpy           old  =     -22.7764513573 Ry
     enthalpy           new  =     -22.7771980834 Ry

     CASE: enthalpy          _new < enthalpy          _old

     new trust radius        =       0.0236504433 bohr
     new conv_thr            =       0.0000000100 Ry

     new unit-cell volume =    693.10256 a.u.^3 (   102.70720 Ang^3 )
     density =      0.38838 g/cm^3

CELL_PARAMETERS (alat=  4.64116736)
   0.991497847  -0.000000000   0.000000000
  -0.495748923   0.858662323   0.000000000
   0.000000000   0.000000000   8.143322476

ATOMIC_POSITIONS (crystal)
C            -0.0000000000       -0.0000000000        0.0000000000
C             0.3333333333        0.6666666667        0.0000000000



     Writing config-only to output data dir ./pwscf.save/
     NEW-OLD atomic charge density approx. for the potential

     negative rho (up, down):  3.997E-04 0.000E+00
     extrapolated charge    7.92797, renormalised to    8.00000

     total cpu time spent up to now is        2.3 secs

     Self-consistent Calculation

     iteration #  1     ecut=    60.00 Ry     beta= 0.70
     Davidson diagonalization with overlap
     ethr =  1.00E-06,  avg # of iterations =  3.8

     negative rho (up, down):  1.120E-04 0.000E+00

     total cpu time spent up to now is        2.5 secs

     total energy              =     -22.77526622 Ry
     estimated scf accuracy    <       0.00123870 Ry

     iteration #  2     ecut=    60.00 Ry     beta= 0.70
     Davidson diagonalization with overlap
     ethr =  1.55E-05,  avg # of iterations =  3.0

     negative rho (up, down):  6.742E-05 0.000E+00

     total cpu time spent up to now is        2.6 secs

     total energy              =     -22.77769807 Ry
     estimated scf accuracy    <       0.00117274 Ry

     iteration #  3     ecut=    60.00 Ry     beta= 0.70
     Davidson diagonalization with overlap
     ethr =  1.47E-05,  avg # of iterations =  1.0

     negative rho (up, down):  3.446E-05 0.000E+00

     total cpu time spent up to now is        2.7 secs

     total energy              =     -22.77763301 Ry
     estimated scf accuracy    <       0.00026757 Ry

     iteration #  4     ecut=    60.00 Ry     beta= 0.70
     Davidson diagonalization with overlap
     ethr =  3.34E-06,  avg # of iterations =  2.0

     negative rho (up, down):  2.853E-05 0.000E+00

     total cpu time spent up to now is        2.9 secs

     total energy              =     -22.77764433 Ry
     estimated scf accuracy    <       0.00005190 Ry

     iteration #  5     ecut=    60.00 Ry     beta= 0.70
     Davidson diagonalization with overlap
     ethr =  6.49E-07,  avg # of iterations =  1.0

     negative rho (up, down):  1.503E-05 0.000E+00

     total cpu time spent up to now is        3.0 secs

     total energy              =     -22.77763659 Ry
     estimated scf accuracy    <       0.00003939 Ry

     iteration #  6     ecut=    60.00 Ry     beta= 0.70
     Davidson diagonalization with overlap
     ethr =  4.92E-07,  avg # of iterations =  1.0

     total cpu time spent up to now is        3.1 secs

     total energy              =     -22.77762211 Ry
     estimated scf accuracy    <       0.00002260 Ry

     iteration #  7     ecut=    60.00 Ry     beta= 0.70
     Davidson diagonalization with overlap
     ethr =  2.82E-07,  avg # of iterations =  2.0

     total cpu time spent up to now is        3.2 secs

     total energy              =     -22.77762635 Ry
     estimated scf accuracy    <       0.00000003 Ry

     iteration #  8     ecut=    60.00 Ry     beta= 0.70
     Davidson diagonalization with overlap
     ethr =  4.02E-10,  avg # of iterations =  3.3

     total cpu time spent up to now is        3.3 secs

     total energy              =     -22.77762638 Ry
     estimated scf accuracy    <       0.00000002 Ry

     iteration #  9     ecut=    60.00 Ry     beta= 0.70
     Davidson diagonalization with overlap
     ethr =  1.90E-10,  avg # of iterations =  2.0

     total cpu time spent up to now is        3.5 secs

     End of self-consistent calculation

          k = 0.1261 0.2184 0.0000 (  5539 PWs)   bands (ev):

   -20.9877  -9.1199  -8.7837  -7.8169

          k = 0.1261 0.5095 0.0000 (  5536 PWs)   bands (ev):

   -17.4404 -14.6377 -10.1548  -5.1911

          k = 0.1261-0.3639 0.0000 (  5541 PWs)   bands (ev):

   -19.5397 -11.5898  -9.3749  -7.3893

          k = 0.1261-0.0728 0.0000 (  5548 PWs)   bands (ev):

   -21.7217 -10.0205  -6.9948  -6.3489

          k = 0.3782 0.6551 0.0000 (  5504 PWs)   bands (ev):

   -15.7654 -15.0864 -12.5450  -3.5735

          k = 0.3782-0.2184 0.0000 (  5546 PWs)   bands (ev):

   -18.8251 -13.3146  -8.7655  -6.6099

     highest occupied level (ev):    -3.5735

!    total energy              =     -22.77762638 Ry
     estimated scf accuracy    <          5.0E-09 Ry

     The total energy is the sum of the following terms:
     one-electron contribution =    -229.99824264 Ry
     hartree contribution      =     116.09570893 Ry
     xc contribution           =      -6.97459175 Ry
     ewald contribution        =      98.09949908 Ry

     convergence has been achieved in   9 iterations

     Forces acting on atoms (cartesian axes, Ry/au):

     atom    1 type  1   force =    -0.00000000   -0.00000000    0.00000000
     atom    2 type  1   force =     0.00000000    0.00000000    0.00000000

     Total force =     0.000000     Total SCF correction =     0.000000


     Computing stress (Cartesian axis) and pressure

          total   stress  (Ry/bohr**3)                   (kbar)     P=       -7.73
  -0.00003556   0.00000000  -0.00000000           -5.23        0.00       -0.00
   0.00000000  -0.00003556  -0.00000000            0.00       -5.23       -0.00
  -0.00000000  -0.00000000  -0.00008661           -0.00       -0.00      -12.74

     Energy error            =      4.3E-04 Ry
     Gradient error          =      1.8E-30 Ry/Bohr
     Cell gradient error     =      5.2E+00 kbar

     number of scf cycles    =   3
     number of bfgs steps    =   2

     enthalpy           old  =     -22.7771980834 Ry
     enthalpy           new  =     -22.7776263780 Ry

     CASE: enthalpy          _new < enthalpy          _old

     new trust radius        =       0.0123419486 bohr
     new conv_thr            =       0.0000000100 Ry

     new unit-cell volume =    689.85713 a.u.^3 (   102.22628 Ang^3 )
     density =      0.39021 g/cm^3

CELL_PARAMETERS (alat=  4.64116736)
   0.989173790   0.000000000   0.000000000
  -0.494586895   0.856649631   0.000000000
   0.000000000   0.000000000   8.143322476

ATOMIC_POSITIONS (crystal)
C            -0.0000000000       -0.0000000000        0.0000000000
C             0.3333333333        0.6666666667        0.0000000000



     Writing config-only to output data dir ./pwscf.save/
     NEW-OLD atomic charge density approx. for the potential

     negative rho (up, down):  2.111E-04 0.000E+00
     extrapolated charge    7.96236, renormalised to    8.00000

     total cpu time spent up to now is        3.8 secs

     Self-consistent Calculation

     iteration #  1     ecut=    60.00 Ry     beta= 0.70
     Davidson diagonalization with overlap
     ethr =  1.00E-06,  avg # of iterations =  3.0

     negative rho (up, down):  5.725E-05 0.000E+00

     total cpu time spent up to now is        3.9 secs

     total energy              =     -22.77701446 Ry
     estimated scf accuracy    <       0.00035038 Ry

     iteration #  2     ecut=    60.00 Ry     beta= 0.70
     Davidson diagonalization with overlap
     ethr =  4.38E-06,  avg # of iterations =  3.0

     negative rho (up, down):  3.433E-05 0.000E+00

     total cpu time spent up to now is        4.1 secs

     total energy              =     -22.77770371 Ry
     estimated scf accuracy    <       0.00033207 Ry

     iteration #  3     ecut=    60.00 Ry     beta= 0.70
     Davidson diagonalization with overlap
     ethr =  4.15E-06,  avg # of iterations =  1.0

     negative rho (up, down):  1.805E-05 0.000E+00

     total cpu time spent up to now is        4.2 secs

     total energy              =     -22.77768632 Ry
     estimated scf accuracy    <       0.00007609 Ry

     iteration #  4     ecut=    60.00 Ry     beta= 0.70
     Davidson diagonalization with overlap
     ethr =  9.51E-07,  avg # of iterations =  2.0

     negative rho (up, down):  1.525E-05 0.000E+00

     total cpu time spent up to now is        4.3 secs

     total energy              =     -22.77768938 Ry
     estimated scf accuracy    <       0.00001662 Ry

     iteration #  5     ecut=    60.00 Ry     beta= 0.70
     Davidson diagonalization with overlap
     ethr =  2.08E-07,  avg # of iterations =  1.0

     negative rho (up, down):  5.901E-06 0.000E+00

     total cpu time spent up to now is        4.4 secs

     total energy              =     -22.77768507 Ry
     estimated scf accuracy    <       0.00001365 Ry

     iteration #  6     ecut=    60.00 Ry     beta= 0.70
     Davidson diagonalization with overlap
     ethr =  1.71E-07,  avg # of iterations =  1.0

     total cpu time spent up to now is        4.5 secs

     total energy              =     -22.77768214 Ry
     estimated scf accuracy    <       0.00000506 Ry

     iteration #  7     ecut=    60.00 Ry     beta= 0.70
     Davidson diagonalization with overlap
     ethr =  6.32E-08,  avg # of iterations =  2.0

     total cpu time spent up to now is        4.6 secs

     End of self-consistent calculation

          k = 0.1264 0.2189 0.0000 (  5539 PWs)   bands (ev):

   -21.0151  -9.1364  -8.7658  -7.8056

          k = 0.1264 0.5107 0.0000 (  5536 PWs)   bands (ev):

   -17.4520 -14.6446 -10.1543  -5.1831

          k = 0.1264-0.3648 0.0000 (  5541 PWs)   bands (ev):

   -19.5612 -11.5827  -9.3711  -7.3956

          k = 0.1264-0.0730 0.0000 (  5548 PWs)   bands (ev):

   -21.7520 -10.0422  -6.9726  -6.3279

          k = 0.3791 0.6566 0.0000 (  5504 PWs)   bands (ev):

   -15.7628 -15.0976 -12.5575  -3.5552

          k = 0.3791-0.2189 0.0000 (  5546 PWs)   bands (ev):

   -18.8435 -13.3157  -8.7598  -6.6112

     highest occupied level (ev):    -3.5552

!    total energy              =     -22.77768309 Ry
     estimated scf accuracy    <          6.8E-09 Ry

     The total energy is the sum of the following terms:
     one-electron contribution =    -231.10214738 Ry
     hartree contribution      =     116.65415506 Ry
     xc contribution           =      -6.98495753 Ry
     ewald contribution        =      98.65526675 Ry

     convergence has been achieved in   7 iterations

     Forces acting on atoms (cartesian axes, Ry/au):

     atom    1 type  1   force =    -0.00000000    0.00000000    0.00000000
     atom    2 type  1   force =     0.00000000   -0.00000000    0.00000000

     Total force =     0.000000     Total SCF correction =     0.000000


     Computing stress (Cartesian axis) and pressure

          total   stress  (Ry/bohr**3)                   (kbar)     P=       -4.18
   0.00000065  -0.00000000   0.00000000            0.10       -0.00        0.00
  -0.00000000   0.00000065   0.00000000           -0.00        0.10        0.00
  -0.00000000   0.00000000  -0.00008646           -0.00        0.00      -12.72

     Energy error            =      5.7E-05 Ry
     Gradient error          =      1.3E-30 Ry/Bohr
     Cell gradient error     =      9.5E-02 kbar

     bfgs converged in   4 scf cycles and   3 bfgs steps
     (criteria: energy <  1.0E-04 Ry, force <  1.0E-03 Ry/Bohr, cell <  5.0E-01 kbar)

     End of BFGS Geometry Optimization

     Final enthalpy           =     -22.7776830927 Ry

     File ./pwscf.bfgs deleted, as requested
Begin final coordinates
     new unit-cell volume =    689.85713 a.u.^3 (   102.22628 Ang^3 )
     density =      0.39021 g/cm^3

CELL_PARAMETERS (alat=  4.64116736)
   0.989173790   0.000000000   0.000000000
  -0.494586895   0.856649631   0.000000000
   0.000000000   0.000000000   8.143322476

ATOMIC_POSITIONS (crystal)
C            -0.0000000000       -0.0000000000        0.0000000000
C             0.3333333333        0.6666666667        0.0000000000
End final coordinates



     Writing config-only to output data dir ./pwscf.save/

     Final scf calculation at the relaxed structure.
     The G-vectors are recalculated for the final unit cell
     Results may differ from those at the preceding step.
 
     G-vector sticks info
     --------------------
     sticks:   dense  smooth     PW     G-vecs:    dense   smooth      PW
     Sum         349     349    109                43399    43399    7833
 
     Using Slab Decomposition
 


     bravais-lattice index     =            4
     lattice parameter (alat)  =       4.6412  a.u.
     unit-cell volume          =     689.8571 (a.u.)^3
     number of atoms/cell      =            2
     number of atomic types    =            1
     number of electrons       =         8.00
     number of Kohn-Sham states=            4
     kinetic-energy cutoff     =      60.0000  Ry
     charge density cutoff     =     240.0000  Ry
     scf convergence threshold =      1.0E-08
     mixing beta               =       0.7000
     number of iterations used =            8  plain     mixing
     press convergence thresh. =      5.0E-01
     Exchange-correlation=  SLA  PZ   NOGX NOGC
                           (   1   1   0   0   0   0   0)

     celldm(1)=   4.641167  celldm(2)=   0.000000  celldm(3)=   8.143322
     celldm(4)=   0.000000  celldm(5)=   0.000000  celldm(6)=   0.000000

     crystal axes: (cart. coord. in units of alat)
               a(1) = (   0.989174   0.000000   0.000000 )  
               a(2) = (  -0.494587   0.856650   0.000000 )  
               a(3) = (   0.000000   0.000000   8.143322 )  

     reciprocal axes: (cart. coord. in units 2 pi/alat)
               b(1) = (  1.010945  0.583669  0.000000 )  
               b(2) = ( -0.000000  1.167338  0.000000 )  
               b(3) = (  0.000000  0.000000  0.122800 )  


     PseudoPot. # 1 for C  read from file:
     ./C.pz-vbc.UPF
     MD5 check sum: ab53dd623bfeb79c5a7b057bc96eae20
     Pseudo is Norm-conserving, Zval =  4.0
     Generated by new atomic code, or converted to UPF format
     Using radial grid of  269 points,  1 beta functions with: 
                l(1) =   0

     atomic species   valence    mass     pseudopotential
        C              4.00    12.01100     C ( 1.00)

     24 Sym. Ops., with inversion, found (12 have fractional translation)



   Cartesian axes

     site n.     atom                  positions (alat units)
         1           C   tau(   1) = (   0.0000000  -0.0000000   0.0000000  )
         2           C   tau(   2) = (   0.0000000   0.5710998   0.0000000  )

     number of k points=     6
                       cart. coord. in units 2pi/alat
        k(    1) = (   0.1263681   0.2188759   0.0000000), wk =   0.2500000
        k(    2) = (   0.1263681   0.5107105   0.0000000), wk =   0.5000000
        k(    3) = (   0.1263681  -0.3647932   0.0000000), wk =   0.5000000
        k(    4) = (   0.1263681  -0.0729586   0.0000000), wk =   0.2500000
        k(    5) = (   0.3791043   0.6566278   0.0000000), wk =   0.2500000
        k(    6) = (   0.3791043  -0.2188759   0.0000000), wk =   0.2500000

     Dense  grid:    43399 G-vectors     FFT dimensions: (  24,  24, 192)

     Estimated max dynamical RAM per process >      29.80 MB

     Initial potential from superposition of free atoms

     starting charge       7.9999, renormalised to       8.0000

     negative rho (up, down):  1.913E-03 0.000E+00
     Starting wfcs are    8 randomized atomic wfcs

     total cpu time spent up to now is        4.9 secs

     Self-consistent Calculation

     iteration #  1     ecut=    60.00 Ry     beta= 0.70
     Davidson diagonalization with overlap
     ethr =  1.00E-06,  avg # of iterations =  8.5

     negative rho (up, down):  5.634E-04 0.000E+00

     total cpu time spent up to now is        5.2 secs

     total energy              =     -22.73528911 Ry
     estimated scf accuracy    <       0.24451322 Ry

     iteration #  2     ecut=    60.00 Ry     beta= 0.70
     Davidson diagonalization with overlap
     ethr =  3.06E-03,  avg # of iterations =  2.0

     negative rho (up, down):  1.666E-04 0.000E+00

     total cpu time spent up to now is        5.4 secs

     total energy              =     -22.77626010 Ry
     estimated scf accuracy    <       0.00257799 Ry

     iteration #  3     ecut=    60.00 Ry     beta= 0.70
     Davidson diagonalization with overlap
     ethr =  3.22E-05,  avg # of iterations =  1.7

     negative rho (up, down):  4.569E-06 0.000E+00

     total cpu time spent up to now is        5.5 secs

     total energy              =     -22.77648735 Ry
     estimated scf accuracy    <       0.00019953 Ry

     iteration #  4     ecut=    60.00 Ry     beta= 0.70
     Davidson diagonalization with overlap
     ethr =  2.49E-06,  avg # of iterations =  2.5

     negative rho (up, down):  3.734E-07 0.000E+00

     total cpu time spent up to now is        5.6 secs

     total energy              =     -22.77652394 Ry
     estimated scf accuracy    <       0.00000557 Ry

     iteration #  5     ecut=    60.00 Ry     beta= 0.70
     Davidson diagonalization with overlap
     ethr =  6.96E-08,  avg # of iterations =  3.3

     total cpu time spent up to now is        5.7 secs

     total energy              =     -22.77652723 Ry
     estimated scf accuracy    <       0.00000004 Ry

     iteration #  6     ecut=    60.00 Ry     beta= 0.70
     Davidson diagonalization with overlap
     ethr =  4.88E-10,  avg # of iterations =  4.8

     total cpu time spent up to now is        5.9 secs

     End of self-consistent calculation

          k = 0.1264 0.2189 0.0000 (  5435 PWs)   bands (ev):

   -21.0151  -9.1351  -8.7643  -7.8035

          k = 0.1264 0.5107 0.0000 (  5403 PWs)   bands (ev):

   -17.4511 -14.6434 -10.1516  -5.1821

          k = 0.1264-0.3648 0.0000 (  5417 PWs)   bands (ev):

   -19.5609 -11.5812  -9.3689  -7.3943

          k = 0.1264-0.0730 0.0000 (  5444 PWs)   bands (ev):

   -21.7521 -10.0407  -6.9704  -6.3258

          k = 0.3791 0.6566 0.0000 (  5396 PWs)   bands (ev):

   -15.7620 -15.0963 -12.5563  -3.5546

          k = 0.3791-0.2189 0.0000 (  5420 PWs)   bands (ev):

   -18.8426 -13.3148  -8.7577  -6.6101

     highest occupied level (ev):    -3.5546

!    total energy              =     -22.77652732 Ry
     estimated scf accuracy    <          1.2E-09 Ry

     The total energy is the sum of the following terms:
     one-electron contribution =    -231.09993647 Ry
     hartree contribution      =     116.65302864 Ry
     xc contribution           =      -6.98488625 Ry
     ewald contribution        =      98.65526675 Ry

     convergence has been achieved in   6 iterations

     Forces acting on atoms (cartesian axes, Ry/au):

     atom    1 type  1   force =     0.00000000   -0.00000000    0.00000000
     atom    2 type  1   force =    -0.00000000    0.00000000    0.00000000

     Total force =     0.000000     Total SCF correction =     0.000000


     Computing stress (Cartesian axis) and pressure

          total   stress  (Ry/bohr**3)                   (kbar)     P=       -4.74
  -0.00000376   0.00000000  -0.00000000           -0.55        0.00       -0.00
   0.00000000  -0.00000376  -0.00000000            0.00       -0.55       -0.00
  -0.00000000  -0.00000000  -0.00008925           -0.00       -0.00      -13.13

 
     init_run     :      0.38s CPU      0.41s WALL (       2 calls)
     electrons    :      4.14s CPU      4.40s WALL (       5 calls)
     update_pot   :      0.43s CPU      0.43s WALL (       3 calls)
     forces       :      0.28s CPU      0.28s WALL (       5 calls)
     stress       :      0.44s CPU      0.46s WALL (       5 calls)

     Called by init_run:
     wfcinit      :      0.14s CPU      0.15s WALL (       2 calls)
     potinit      :      0.12s CPU      0.12s WALL (       2 calls)
     hinit0       :      0.10s CPU      0.11s WALL (       2 calls)

     Called by electrons:
     c_bands      :      3.06s CPU      3.19s WALL (      34 calls)
     sum_band     :      0.74s CPU      0.79s WALL (      34 calls)
     v_of_rho     :      0.16s CPU      0.16s WALL (      39 calls)
     mix_rho      :      0.17s CPU      0.23s WALL (      34 calls)

     Called by c_bands:
     init_us_2    :      0.07s CPU      0.08s WALL (     480 calls)
     init_us_2:cp :      0.07s CPU      0.07s WALL (     480 calls)
     cegterg      :      2.99s CPU      3.11s WALL (     204 calls)

     Called by *egterg:
     cdiaghg      :      0.03s CPU      0.03s WALL (     678 calls)
     h_psi        :      2.82s CPU      2.93s WALL (     708 calls)
     g_psi        :      0.03s CPU      0.03s WALL (     492 calls)

     Called by h_psi:
     h_psi:calbec :      0.03s CPU      0.03s WALL (     708 calls)
     vloc_psi     :      2.73s CPU      2.83s WALL (     708 calls)
     add_vuspsi   :      0.03s CPU      0.03s WALL (     708 calls)

     General routines
     calbec       :      0.03s CPU      0.03s WALL (     858 calls)
     fft          :      0.07s CPU      0.08s WALL (     140 calls)
     ffts         :      0.02s CPU      0.02s WALL (      34 calls)
     fftw         :      2.53s CPU      2.62s WALL (    5800 calls)
 
     Parallel routines
 
     PWSCF        :      5.71s CPU      6.05s WALL

 
   This run was terminated on:  17:17:57   5Jul2024            

=------------------------------------------------------------------------------=
   JOB DONE.
=------------------------------------------------------------------------------=
