MPI startup(): Warning: I_MPI_PMI_LIBRARY will be ignored since the hydra process manager was found
MPI startup(): Warning: I_MPI_PMI_LIBRARY will be ignored since the hydra process manager was found

     Program PWSCF v.7.1 starts on 21Apr2023 at 11: 6:19 

     This program is part of the open-source Quantum ESPRESSO suite
     for quantum simulation of materials; please cite
         "P. Giannozzi et al., J. Phys.:Condens. Matter 21 395502 (2009);
         "P. Giannozzi et al., J. Phys.:Condens. Matter 29 465901 (2017);
         "P. Giannozzi et al., J. Chem. Phys. 152 154105 (2020);
          URL http://www.quantum-espresso.org", 
     in publications or presentations arising from this work. More details at
     http://www.quantum-espresso.org/quote

     Parallel version (MPI), running on     2 processors

     MPI processes distributed on     1 nodes
     3585 MiB available memory on the printing compute node when the environment starts
 
     Waiting for input...
     Reading input from standard input

     Current dimensions of program PWSCF are:
     Max number of different atomic species (ntypx) = 10
     Max number of k-points (npk) =  40000
     Max angular momentum in pseudopotentials (lmaxx) =  4

     gamma-point specific algorithms are used
 
     R & G space division:  proc/nbgrp/npool/nimage =       2
     Subspace diagonalization in iterative solution of the eigenvalue problem:
     a serial algorithm will be used

 
     Parallelization info
     --------------------
     sticks:   dense  smooth     PW     G-vecs:    dense   smooth      PW
     Min        4098    4098   1025               278333   278333   34895
     Max        4099    4099   1028               278334   278334   34896
     Sum        8197    8197   2053               556667   556667   69791
 
     Using Slab Decomposition
 


     bravais-lattice index     =            1
     lattice parameter (alat)  =      37.7945  a.u.
     unit-cell volume          =   53986.6760 (a.u.)^3
     number of atoms/cell      =           20
     number of atomic types    =            1
     number of electrons       =        80.00
     number of Kohn-Sham states=           40
     kinetic-energy cutoff     =      18.0000  Ry
     charge density cutoff     =      72.0000  Ry
     scf convergence threshold =      1.0E-06
     mixing beta               =       0.7000
     number of iterations used =            8  plain     mixing
     Exchange-correlation=  SLA  PZ   NOGX NOGC
                           (   1   1   0   0   0   0   0)

     celldm(1)=  37.794522  celldm(2)=   0.000000  celldm(3)=   0.000000
     celldm(4)=   0.000000  celldm(5)=   0.000000  celldm(6)=   0.000000

     crystal axes: (cart. coord. in units of alat)
               a(1) = (   1.000000   0.000000   0.000000 )  
               a(2) = (   0.000000   1.000000   0.000000 )  
               a(3) = (   0.000000   0.000000   1.000000 )  

     reciprocal axes: (cart. coord. in units 2 pi/alat)
               b(1) = (  1.000000  0.000000  0.000000 )  
               b(2) = (  0.000000  1.000000  0.000000 )  
               b(3) = (  0.000000  0.000000  1.000000 )  


     PseudoPot. # 1 for C  read from file:
     ./C.pz-vbc.UPF
     MD5 check sum: ab53dd623bfeb79c5a7b057bc96eae20
     Pseudo is Norm-conserving, Zval =  4.0
     Generated by new atomic code, or converted to UPF format
     Using radial grid of  269 points,  1 beta functions with: 
                l(1) =   0

     atomic species   valence    mass     pseudopotential
        C              4.00    12.01100     C ( 1.00)

      2 Sym. Ops. (no inversion) found



   Cartesian axes

     site n.     atom                  positions (alat units)
         1           C   tau(   1) = (  -0.0000002   0.0601097   0.0231142  )
         2           C   tau(   2) = (  -0.0571636   0.0185742   0.0231108  )
         3           C   tau(   3) = (   0.0571633   0.0185741   0.0231108  )
         4           C   tau(   4) = (  -0.0353308  -0.0486269   0.0231133  )
         5           C   tau(   5) = (   0.0353304  -0.0486269   0.0231134  )
         6           C   tau(   6) = (  -0.0000003   0.1276569   0.0005211  )
         7           C   tau(   7) = (  -0.1213913   0.0394491   0.0005058  )
         8           C   tau(   8) = (   0.1213911   0.0394489   0.0005057  )
         9           C   tau(   9) = (  -0.0750183  -0.1032682   0.0005122  )
        10           C   tau(  10) = (   0.0750179  -0.1032684   0.0005125  )
        11           C   tau(  11) = (   0.0667890   0.1447647  -0.0118089  )
        12           C   tau(  12) = (  -0.1582907  -0.0188022  -0.0118169  )
        13           C   tau(  13) = (   0.1170178   0.1082606  -0.0118133  )
        14           C   tau(  14) = (  -0.1391169  -0.0778594  -0.0118119  )
        15           C   tau(  15) = (   0.1582917  -0.0188024  -0.0118171  )
        16           C   tau(  16) = (  -0.0310471  -0.1563743  -0.0118087  )
        17           C   tau(  17) = (   0.1391167  -0.0778597  -0.0118119  )
        18           C   tau(  18) = (   0.0310480  -0.1563754  -0.0118089  )
        19           C   tau(  19) = (  -0.0667895   0.1447652  -0.0118089  )
        20           C   tau(  20) = (  -0.1170173   0.1082604  -0.0118130  )

     number of k points=     1
                       cart. coord. in units 2pi/alat
        k(    1) = (   0.0000000   0.0000000   0.0000000), wk =   2.0000000

     Dense  grid:   278334 G-vectors     FFT dimensions: ( 108, 108, 108)

     Estimated max dynamical RAM per process >     159.70 MB

     Estimated total dynamical RAM >     319.40 MB

     Initial potential from superposition of free atoms

     starting charge      79.9994, renormalised to      80.0000

     negative rho (up, down):  4.786E-01 0.000E+00
     Starting wfcs are   80 randomized atomic wfcs

     total cpu time spent up to now is        1.0 secs

     Self-consistent Calculation

     iteration #  1     ecut=    18.00 Ry     beta= 0.70
     Davidson diagonalization with overlap
     ethr =  1.00E-02,  avg # of iterations =  2.0

     negative rho (up, down):  1.350E-01 0.000E+00

     total cpu time spent up to now is        2.2 secs

     total energy              =    -217.76904659 Ry
     estimated scf accuracy    <       1.73832568 Ry

     iteration #  2     ecut=    18.00 Ry     beta= 0.70
     Davidson diagonalization with overlap
     ethr =  2.17E-03,  avg # of iterations =  4.0

     negative rho (up, down):  6.353E-02 0.000E+00

     total cpu time spent up to now is        3.4 secs

     total energy              =    -217.91518472 Ry
     estimated scf accuracy    <       0.55831659 Ry

     iteration #  3     ecut=    18.00 Ry     beta= 0.70
     Davidson diagonalization with overlap
     ethr =  6.98E-04,  avg # of iterations =  5.0

     negative rho (up, down):  2.583E-02 0.000E+00

     total cpu time spent up to now is        4.6 secs

     total energy              =    -218.07062795 Ry
     estimated scf accuracy    <       0.31007629 Ry

     iteration #  4     ecut=    18.00 Ry     beta= 0.70
     Davidson diagonalization with overlap
     ethr =  3.88E-04,  avg # of iterations =  5.0

     negative rho (up, down):  2.015E-03 0.000E+00

     total cpu time spent up to now is        5.7 secs

     total energy              =    -218.11885848 Ry
     estimated scf accuracy    <       0.00454502 Ry

     iteration #  5     ecut=    18.00 Ry     beta= 0.70
     Davidson diagonalization with overlap
     ethr =  5.68E-06,  avg # of iterations =  5.0

     negative rho (up, down):  2.385E-04 0.000E+00

     total cpu time spent up to now is        7.1 secs

     total energy              =    -218.12196443 Ry
     estimated scf accuracy    <       0.00400204 Ry

     iteration #  6     ecut=    18.00 Ry     beta= 0.70
     Davidson diagonalization with overlap
     ethr =  5.00E-06,  avg # of iterations =  2.0

     negative rho (up, down):  5.656E-08 0.000E+00

     total cpu time spent up to now is        8.1 secs

     total energy              =    -218.12214417 Ry
     estimated scf accuracy    <       0.00062188 Ry

     iteration #  7     ecut=    18.00 Ry     beta= 0.70
     Davidson diagonalization with overlap
     ethr =  7.77E-07,  avg # of iterations =  7.0

     total cpu time spent up to now is        9.4 secs

     total energy              =    -218.12237187 Ry
     estimated scf accuracy    <       0.00027077 Ry

     iteration #  8     ecut=    18.00 Ry     beta= 0.70
     Davidson diagonalization with overlap
     ethr =  3.38E-07,  avg # of iterations =  5.0

     total cpu time spent up to now is       10.5 secs

     total energy              =    -218.12242400 Ry
     estimated scf accuracy    <       0.00000188 Ry

     iteration #  9     ecut=    18.00 Ry     beta= 0.70
     Davidson diagonalization with overlap
     ethr =  2.35E-09,  avg # of iterations =  6.0

     total cpu time spent up to now is       12.2 secs

     total energy              =    -218.12242622 Ry
     estimated scf accuracy    <       0.00000386 Ry

     iteration # 10     ecut=    18.00 Ry     beta= 0.70
     Davidson diagonalization with overlap
     ethr =  2.35E-09,  avg # of iterations =  5.0

     total cpu time spent up to now is       13.2 secs

     End of self-consistent calculation

          k = 0.0000 0.0000 0.0000 ( 34896 PWs)   bands (ev):

   -24.8377 -23.3899 -23.3883 -21.7957 -21.7952 -21.6845 -19.8555 -19.8554
   -18.6929 -18.6918 -17.1086 -17.1084 -16.5635 -14.9640 -14.9631 -14.9410
   -13.6192 -13.3524 -13.3509 -12.5721 -12.5699 -12.1265 -11.2030 -11.2010
   -10.7087 -10.7082 -10.1035 -10.1003  -8.9921  -8.9919  -8.8739  -7.2291
    -7.2285  -7.1951  -7.1917  -7.0586  -6.9205  -6.9189  -6.3099  -6.3083

     highest occupied level (ev):    -6.3083

!    total energy              =    -218.12242634 Ry
     estimated scf accuracy    <       0.00000037 Ry

     The total energy is the sum of the following terms:
     one-electron contribution =   -1571.10226947 Ry
     hartree contribution      =     789.55670280 Ry
     xc contribution           =     -66.91181670 Ry
     ewald contribution        =     630.33495704 Ry

     convergence has been achieved in  10 iterations

     Writing all to output data dir ./pwscf.save/
 
     init_run     :      0.82s CPU      0.98s WALL (       1 calls)
     electrons    :     11.77s CPU     12.24s WALL (       1 calls)

     Called by init_run:
     wfcinit      :      0.56s CPU      0.62s WALL (       1 calls)
     potinit      :      0.10s CPU      0.15s WALL (       1 calls)
     hinit0       :      0.05s CPU      0.09s WALL (       1 calls)

     Called by electrons:
     c_bands      :      9.05s CPU      9.39s WALL (      10 calls)
     sum_band     :      1.81s CPU      1.87s WALL (      10 calls)
     v_of_rho     :      0.47s CPU      0.51s WALL (      11 calls)
     mix_rho      :      0.42s CPU      0.45s WALL (      10 calls)

     Called by c_bands:
     init_us_2    :      0.05s CPU      0.05s WALL (      21 calls)
     init_us_2:cp :      0.05s CPU      0.05s WALL (      21 calls)
     regterg      :      9.02s CPU      9.35s WALL (      10 calls)

     Called by *egterg:
     rdiaghg      :      0.08s CPU      0.09s WALL (      56 calls)
     h_psi        :      7.95s CPU      8.26s WALL (      57 calls)
     g_psi        :      0.04s CPU      0.04s WALL (      46 calls)

     Called by h_psi:
     h_psi:calbec :      0.11s CPU      0.12s WALL (      57 calls)
     vloc_psi     :      7.60s CPU      7.90s WALL (      57 calls)
     add_vuspsi   :      0.16s CPU      0.16s WALL (      57 calls)

     General routines
     calbec       :      0.11s CPU      0.12s WALL (      57 calls)
     fft          :      0.39s CPU      0.44s WALL (      32 calls)
     ffts         :      0.10s CPU      0.11s WALL (      10 calls)
     fftw         :      6.87s CPU      7.19s WALL (    1514 calls)
 
     Parallel routines
 
     PWSCF        :     12.65s CPU     13.32s WALL

 
   This run was terminated on:  11: 6:33  21Apr2023            

=------------------------------------------------------------------------------=
   JOB DONE.
=------------------------------------------------------------------------------=
