MPI startup(): Warning: I_MPI_PMI_LIBRARY will be ignored since the hydra process manager was found
MPI startup(): Warning: I_MPI_PMI_LIBRARY will be ignored since the hydra process manager was found

     Program PWSCF v.7.1 starts on 21Apr2023 at 11: 6:34 

     This program is part of the open-source Quantum ESPRESSO suite
     for quantum simulation of materials; please cite
         "P. Giannozzi et al., J. Phys.:Condens. Matter 21 395502 (2009);
         "P. Giannozzi et al., J. Phys.:Condens. Matter 29 465901 (2017);
         "P. Giannozzi et al., J. Chem. Phys. 152 154105 (2020);
          URL http://www.quantum-espresso.org", 
     in publications or presentations arising from this work. More details at
     http://www.quantum-espresso.org/quote

     Parallel version (MPI), running on     2 processors

     MPI processes distributed on     1 nodes
     3556 MiB available memory on the printing compute node when the environment starts
 
     Waiting for input...
     Reading input from standard input

     Current dimensions of program PWSCF are:
     Max number of different atomic species (ntypx) = 10
     Max number of k-points (npk) =  40000
     Max angular momentum in pseudopotentials (lmaxx) =  4

     gamma-point specific algorithms are used
 
     R & G space division:  proc/nbgrp/npool/nimage =       2
     Subspace diagonalization in iterative solution of the eigenvalue problem:
     a serial algorithm will be used

 
     Parallelization info
     --------------------
     sticks:   dense  smooth     PW     G-vecs:    dense   smooth      PW
     Min        4098    4098   1025               278333   278333   34895
     Max        4099    4099   1028               278334   278334   34896
     Sum        8197    8197   2053               556667   556667   69791
 
     Using Slab Decomposition
 


     bravais-lattice index     =            1
     lattice parameter (alat)  =      37.7945  a.u.
     unit-cell volume          =   53986.6760 (a.u.)^3
     number of atoms/cell      =           20
     number of atomic types    =            1
     number of electrons       =        80.00
     number of Kohn-Sham states=           40
     kinetic-energy cutoff     =      18.0000  Ry
     charge density cutoff     =      72.0000  Ry
     scf convergence threshold =      1.0E-06
     mixing beta               =       0.7000
     number of iterations used =            8  plain     mixing
     Exchange-correlation=  SLA  PZ   NOGX NOGC
                           (   1   1   0   0   0   0   0)

     celldm(1)=  37.794522  celldm(2)=   0.000000  celldm(3)=   0.000000
     celldm(4)=   0.000000  celldm(5)=   0.000000  celldm(6)=   0.000000

     crystal axes: (cart. coord. in units of alat)
               a(1) = (   1.000000   0.000000   0.000000 )  
               a(2) = (   0.000000   1.000000   0.000000 )  
               a(3) = (   0.000000   0.000000   1.000000 )  

     reciprocal axes: (cart. coord. in units 2 pi/alat)
               b(1) = (  1.000000  0.000000  0.000000 )  
               b(2) = (  0.000000  1.000000  0.000000 )  
               b(3) = (  0.000000  0.000000  1.000000 )  


     PseudoPot. # 1 for C  read from file:
     ./C.pz-vbc.UPF
     MD5 check sum: ab53dd623bfeb79c5a7b057bc96eae20
     Pseudo is Norm-conserving, Zval =  4.0
     Generated by new atomic code, or converted to UPF format
     Using radial grid of  269 points,  1 beta functions with: 
                l(1) =   0

     atomic species   valence    mass     pseudopotential
        C              4.00    12.01100     C ( 1.00)

      4 Sym. Ops., with inversion, found



   Cartesian axes

     site n.     atom                  positions (alat units)
         1           C   tau(   1) = (   0.0608073   0.1955356  -0.0000000  )
         2           C   tau(   2) = (  -0.0003507   0.2047671  -0.0000000  )
         3           C   tau(   3) = (  -0.0657376   0.1939514   0.0000000  )
         4           C   tau(   4) = (  -0.1206500   0.1654762  -0.0000000  )
         5           C   tau(   5) = (  -0.1671771   0.1182645   0.0000000  )
         6           C   tau(   6) = (  -0.1948559   0.0629440  -0.0000000  )
         7           C   tau(   7) = (  -0.2047546  -0.0026007   0.0000000  )
         8           C   tau(   8) = (  -0.1946436  -0.0636277  -0.0000000  )
         9           C   tau(   9) = (  -0.1641324  -0.1224663   0.0000000  )
        10           C   tau(  10) = (  -0.1200884  -0.1658966   0.0000000  )
        11           C   tau(  11) = (  -0.0608076  -0.1955344  -0.0000000  )
        12           C   tau(  12) = (   0.0003502  -0.2047662   0.0000000  )
        13           C   tau(  13) = (   0.0657365  -0.1939508  -0.0000000  )
        14           C   tau(  14) = (   0.1206489  -0.1654758   0.0000000  )
        15           C   tau(  15) = (   0.1671776  -0.1182658  -0.0000000  )
        16           C   tau(  16) = (   0.1948563  -0.0629451   0.0000000  )
        17           C   tau(  17) = (   0.2047560   0.0026000   0.0000000  )
        18           C   tau(  18) = (   0.1946439   0.0636270  -0.0000000  )
        19           C   tau(  19) = (   0.1641325   0.1224663  -0.0000000  )
        20           C   tau(  20) = (   0.1200887   0.1658972   0.0000000  )

     number of k points=     1
                       cart. coord. in units 2pi/alat
        k(    1) = (   0.0000000   0.0000000   0.0000000), wk =   2.0000000

     Dense  grid:   278334 G-vectors     FFT dimensions: ( 108, 108, 108)

     Estimated max dynamical RAM per process >     159.70 MB

     Estimated total dynamical RAM >     319.40 MB

     Initial potential from superposition of free atoms

     starting charge      79.9994, renormalised to      80.0000

     negative rho (up, down):  4.980E-01 0.000E+00
     Starting wfcs are   80 randomized atomic wfcs

     total cpu time spent up to now is        1.0 secs

     Self-consistent Calculation

     iteration #  1     ecut=    18.00 Ry     beta= 0.70
     Davidson diagonalization with overlap
     ethr =  1.00E-02,  avg # of iterations =  2.0

     negative rho (up, down):  1.404E-01 0.000E+00

     total cpu time spent up to now is        2.3 secs

     total energy              =    -217.52618290 Ry
     estimated scf accuracy    <       1.71103795 Ry

     iteration #  2     ecut=    18.00 Ry     beta= 0.70
     Davidson diagonalization with overlap
     ethr =  2.14E-03,  avg # of iterations =  2.0

     negative rho (up, down):  4.059E-02 0.000E+00

     total cpu time spent up to now is        3.5 secs

     total energy              =    -217.75236720 Ry
     estimated scf accuracy    <       0.08553080 Ry

     iteration #  3     ecut=    18.00 Ry     beta= 0.70
     Davidson diagonalization with overlap
     ethr =  1.07E-04,  avg # of iterations =  2.0

     negative rho (up, down):  4.183E-03 0.000E+00

     total cpu time spent up to now is        4.6 secs

     total energy              =    -217.76397278 Ry
     estimated scf accuracy    <       0.00542728 Ry

     iteration #  4     ecut=    18.00 Ry     beta= 0.70
     Davidson diagonalization with overlap
     ethr =  6.78E-06,  avg # of iterations =  4.0

     negative rho (up, down):  1.262E-05 0.000E+00

     total cpu time spent up to now is        5.8 secs

     total energy              =    -217.76501942 Ry
     estimated scf accuracy    <       0.00018903 Ry

     iteration #  5     ecut=    18.00 Ry     beta= 0.70
     Davidson diagonalization with overlap
     ethr =  2.36E-07,  avg # of iterations =  4.0

     total cpu time spent up to now is        7.0 secs

     total energy              =    -217.76506295 Ry
     estimated scf accuracy    <       0.00000415 Ry

     iteration #  6     ecut=    18.00 Ry     beta= 0.70
     Davidson diagonalization with overlap
     ethr =  5.18E-09,  avg # of iterations =  8.0

     total cpu time spent up to now is        8.4 secs

     total energy              =    -217.76506430 Ry
     estimated scf accuracy    <       0.00000119 Ry

     iteration #  7     ecut=    18.00 Ry     beta= 0.70
     Davidson diagonalization with overlap
     ethr =  1.49E-09,  avg # of iterations =  6.0

     total cpu time spent up to now is        9.8 secs

     total energy              =    -217.76506450 Ry
     estimated scf accuracy    <       0.00000185 Ry

     iteration #  8     ecut=    18.00 Ry     beta= 0.70
     Davidson diagonalization with overlap
     ethr =  1.49E-09,  avg # of iterations =  4.0

     total cpu time spent up to now is       10.8 secs

     End of self-consistent calculation

          k = 0.0000 0.0000 0.0000 ( 34896 PWs)   bands (ev):

   -21.9886 -21.8311 -21.8300 -21.3842 -21.3829 -20.6685 -20.6682 -19.7199
   -19.7183 -18.7223 -18.3713 -17.2573 -17.2561 -15.9447 -15.9441 -14.7291
   -14.7214 -13.8229 -13.8219 -13.4672 -10.4939 -10.4904 -10.2722 -10.2709
   -10.2556 -10.2545  -9.5756  -9.5729  -9.5516  -9.5502  -8.4342  -8.4337
    -8.3699  -8.3696  -6.8788  -6.8730  -6.7733  -6.7723  -5.2263  -5.1491

     highest occupied level (ev):    -5.1491

!    total energy              =    -217.76506478 Ry
     estimated scf accuracy    <       0.00000010 Ry

     The total energy is the sum of the following terms:
     one-electron contribution =   -1057.60186609 Ry
     hartree contribution      =     532.60972464 Ry
     xc contribution           =     -65.96859792 Ry
     ewald contribution        =     373.19567459 Ry

     convergence has been achieved in   8 iterations

     Writing all to output data dir ./pwscf.save/
 
     init_run     :      0.80s CPU      1.01s WALL (       1 calls)
     electrons    :      9.00s CPU      9.79s WALL (       1 calls)

     Called by init_run:
     wfcinit      :      0.56s CPU      0.65s WALL (       1 calls)
     potinit      :      0.09s CPU      0.16s WALL (       1 calls)
     hinit0       :      0.04s CPU      0.07s WALL (       1 calls)

     Called by electrons:
     c_bands      :      6.92s CPU      7.51s WALL (       8 calls)
     sum_band     :      1.39s CPU      1.51s WALL (       8 calls)
     v_of_rho     :      0.37s CPU      0.43s WALL (       9 calls)
     mix_rho      :      0.28s CPU      0.31s WALL (       8 calls)

     Called by c_bands:
     init_us_2    :      0.04s CPU      0.04s WALL (      17 calls)
     init_us_2:cp :      0.04s CPU      0.04s WALL (      17 calls)
     regterg      :      6.89s CPU      7.48s WALL (       8 calls)

     Called by *egterg:
     rdiaghg      :      0.06s CPU      0.06s WALL (      40 calls)
     h_psi        :      6.23s CPU      6.81s WALL (      41 calls)
     g_psi        :      0.03s CPU      0.03s WALL (      32 calls)

     Called by h_psi:
     h_psi:calbec :      0.09s CPU      0.09s WALL (      41 calls)
     vloc_psi     :      5.97s CPU      6.54s WALL (      41 calls)
     add_vuspsi   :      0.12s CPU      0.12s WALL (      41 calls)

     General routines
     calbec       :      0.09s CPU      0.09s WALL (      41 calls)
     fft          :      0.30s CPU      0.35s WALL (      26 calls)
     ffts         :      0.08s CPU      0.09s WALL (       8 calls)
     fftw         :      5.53s CPU      6.16s WALL (    1200 calls)
 
     Parallel routines
 
     PWSCF        :      9.85s CPU     10.90s WALL

 
   This run was terminated on:  11: 6:45  21Apr2023            

=------------------------------------------------------------------------------=
   JOB DONE.
=------------------------------------------------------------------------------=
