
     Program PWSCF v.7.1 starts on 12Jul2024 at 15:43: 6 

     This program is part of the open-source Quantum ESPRESSO suite
     for quantum simulation of materials; please cite
         "P. Giannozzi et al., J. Phys.:Condens. Matter 21 395502 (2009);
         "P. Giannozzi et al., J. Phys.:Condens. Matter 29 465901 (2017);
         "P. Giannozzi et al., J. Chem. Phys. 152 154105 (2020);
          URL http://www.quantum-espresso.org", 
     in publications or presentations arising from this work. More details at
     http://www.quantum-espresso.org/quote

     Parallel version (MPI), running on     1 processors

     MPI processes distributed on     1 nodes
     2382 MiB available memory on the printing compute node when the environment starts
 
     Waiting for input...
     Reading input from standard input

     Current dimensions of program PWSCF are:
     Max number of different atomic species (ntypx) = 10
     Max number of k-points (npk) =  40000
     Max angular momentum in pseudopotentials (lmaxx) =  4

     gamma-point specific algorithms are used
 
     Subspace diagonalization in iterative solution of the eigenvalue problem:
     a serial algorithm will be used

 
     G-vector sticks info
     --------------------
     sticks:   dense  smooth     PW     G-vecs:    dense   smooth      PW
     Sum        4905    4905   1225               258999   258999   32423
 
     Using Slab Decomposition
 


     bravais-lattice index     =            1
     lattice parameter (alat)  =      22.6767  a.u.
     unit-cell volume          =   11661.1220 (a.u.)^3
     number of atoms/cell      =            2
     number of atomic types    =            1
     number of electrons       =        16.00
     number of Kohn-Sham states=            8
     kinetic-energy cutoff     =      30.0000  Ry
     charge density cutoff     =     120.0000  Ry
     scf convergence threshold =      1.0E-06
     mixing beta               =       0.7000
     number of iterations used =            8  plain     mixing
     Exchange-correlation= LDA
                           (   1   1   0   0   0   0   0)

     celldm(1)=  22.676713  celldm(2)=   0.000000  celldm(3)=   0.000000
     celldm(4)=   0.000000  celldm(5)=   0.000000  celldm(6)=   0.000000

     crystal axes: (cart. coord. in units of alat)
               a(1) = (   1.000000   0.000000   0.000000 )  
               a(2) = (   0.000000   1.000000   0.000000 )  
               a(3) = (   0.000000   0.000000   1.000000 )  

     reciprocal axes: (cart. coord. in units 2 pi/alat)
               b(1) = (  1.000000  0.000000  0.000000 )  
               b(2) = (  0.000000  1.000000  0.000000 )  
               b(3) = (  0.000000  0.000000  1.000000 )  


     PseudoPot. # 1 for Ar read from file:
     ./Ar.pz-n-rrkjus_psl.1.0.0.UPF
     MD5 check sum: 183994b7224e903289d5cbed611f1b25
     Pseudo is Ultrasoft + core correction, Zval =  8.0
     Generated using &quot;atomic&quot; code by A. Dal Corso  v.6.2.2
     Using radial grid of 1161 points,  6 beta functions with: 
                l(1) =   0
                l(2) =   0
                l(3) =   1
                l(4) =   1
                l(5) =   2
                l(6) =   2
     Q(r) pseudized with 0 coefficients 


     atomic species   valence    mass     pseudopotential
        Ar             8.00    39.94800     Ar( 1.00)

      8 Sym. Ops. (no inversion) found



   Cartesian axes

     site n.     atom                  positions (alat units)
         1           Ar  tau(   1) = (   0.0000000   0.0000000   0.0000000  )
         2           Ar  tau(   2) = (   0.0000000   0.0000000   0.2666667  )

     number of k points=     1
                       cart. coord. in units 2pi/alat
        k(    1) = (   0.0000000   0.0000000   0.0000000), wk =   2.0000000

     Dense  grid:   129500 G-vectors     FFT dimensions: (  80,  80,  80)

     Estimated max dynamical RAM per process >     472.24 MB

     Check: negative core charge=   -0.000001

     Initial potential from superposition of free atoms

     starting charge      16.0000, renormalised to      16.0000

     negative rho (up, down):  3.363E-02 0.000E+00
     Starting wfcs are    8 randomized atomic wfcs

     total cpu time spent up to now is        0.8 secs

     Self-consistent Calculation

     iteration #  1     ecut=    30.00 Ry     beta= 0.70
     Davidson diagonalization with overlap
     ethr =  1.00E-02,  avg # of iterations =  1.0

     Threshold (ethr) on eigenvalues was too large:
     Diagonalizing with lowered threshold

     Davidson diagonalization with overlap
     ethr =  4.24E-07,  avg # of iterations =  5.0

     negative rho (up, down):  3.076E-02 0.000E+00

     total cpu time spent up to now is        2.7 secs

     total energy              =     -86.22748349 Ry
     estimated scf accuracy    <       0.00006244 Ry

     iteration #  2     ecut=    30.00 Ry     beta= 0.70
     Davidson diagonalization with overlap
     ethr =  3.90E-07,  avg # of iterations =  2.0

     negative rho (up, down):  2.991E-02 0.000E+00

     total cpu time spent up to now is        3.8 secs

     total energy              =     -86.22749441 Ry
     estimated scf accuracy    <       0.00000597 Ry

     iteration #  3     ecut=    30.00 Ry     beta= 0.70
     Davidson diagonalization with overlap
     ethr =  3.73E-08,  avg # of iterations =  2.0

     negative rho (up, down):  2.964E-02 0.000E+00

     total cpu time spent up to now is        4.9 secs

     End of self-consistent calculation

          k = 0.0000 0.0000 0.0000 ( 16212 PWs)   bands (ev):

   -24.1083 -23.9664 -10.6180 -10.2318 -10.2318 -10.0666 -10.0666  -9.6916

     highest occupied level (ev):    -9.6916

!    total energy              =     -86.22749532 Ry
     estimated scf accuracy    <       0.00000036 Ry

     The total energy is the sum of the following terms:
     one-electron contribution =    -122.44600615 Ry
     hartree contribution      =      62.75041441 Ry
     xc contribution           =     -16.59945435 Ry
     ewald contribution        =      -9.93244922 Ry

     convergence has been achieved in   3 iterations
 
     init_run     :      0.49s CPU      0.75s WALL (       1 calls)
     electrons    :      2.60s CPU      4.11s WALL (       1 calls)

     Called by init_run:
     wfcinit      :      0.05s CPU      0.06s WALL (       1 calls)
     potinit      :      0.03s CPU      0.05s WALL (       1 calls)
     hinit0       :      0.15s CPU      0.17s WALL (       1 calls)

     Called by electrons:
     c_bands      :      0.65s CPU      0.67s WALL (       4 calls)
     sum_band     :      1.15s CPU      2.08s WALL (       4 calls)
     v_of_rho     :      0.09s CPU      0.10s WALL (       4 calls)
     newd         :      0.90s CPU      1.67s WALL (       4 calls)
     mix_rho      :      0.04s CPU      0.04s WALL (       4 calls)

     Called by c_bands:
     init_us_2    :      0.03s CPU      0.03s WALL (       9 calls)
     init_us_2:cp :      0.03s CPU      0.03s WALL (       9 calls)
     regterg      :      0.53s CPU      0.54s WALL (       4 calls)

     Called by *egterg:
     rdiaghg      :      0.00s CPU      0.00s WALL (      13 calls)
     h_psi        :      0.49s CPU      0.50s WALL (      15 calls)
     s_psi        :      0.02s CPU      0.02s WALL (      15 calls)
     g_psi        :      0.00s CPU      0.00s WALL (      10 calls)

     Called by h_psi:
     h_psi:calbec :      0.02s CPU      0.02s WALL (      15 calls)
     vloc_psi     :      0.44s CPU      0.44s WALL (      15 calls)
     add_vuspsi   :      0.03s CPU      0.03s WALL (      15 calls)

     General routines
     calbec       :      0.03s CPU      0.03s WALL (      19 calls)
     fft          :      0.07s CPU      0.08s WALL (      17 calls)
     ffts         :      0.01s CPU      0.01s WALL (       4 calls)
     fftw         :      0.41s CPU      0.41s WALL (     122 calls)
 
     Parallel routines
 
     PWSCF        :      3.15s CPU      4.94s WALL

 
   This run was terminated on:  15:43:11  12Jul2024            

=------------------------------------------------------------------------------=
   JOB DONE.
=------------------------------------------------------------------------------=
