
     Program PWSCF v.7.1 starts on  2Jun2023 at  9:45:16 

     This program is part of the open-source Quantum ESPRESSO suite
     for quantum simulation of materials; please cite
         "P. Giannozzi et al., J. Phys.:Condens. Matter 21 395502 (2009);
         "P. Giannozzi et al., J. Phys.:Condens. Matter 29 465901 (2017);
         "P. Giannozzi et al., J. Chem. Phys. 152 154105 (2020);
          URL http://www.quantum-espresso.org", 
     in publications or presentations arising from this work. More details at
     http://www.quantum-espresso.org/quote

     Parallel version (MPI), running on     1 processors

     MPI processes distributed on     1 nodes
     4966 MiB available memory on the printing compute node when the environment starts
 
     Waiting for input...
     Reading input from standard input

     Current dimensions of program PWSCF are:
     Max number of different atomic species (ntypx) = 10
     Max number of k-points (npk) =  40000
     Max angular momentum in pseudopotentials (lmaxx) =  4
 
     Subspace diagonalization in iterative solution of the eigenvalue problem:
     a serial algorithm will be used

 
     G-vector sticks info
     --------------------
     sticks:   dense  smooth     PW     G-vecs:    dense   smooth      PW
     Sum         379     379    121                 4909     4909     941
 
     Using Slab Decomposition
 


     bravais-lattice index     =            2
     lattice parameter (alat)  =       6.7407  a.u.
     unit-cell volume          =      76.5678 (a.u.)^3
     number of atoms/cell      =            2
     number of atomic types    =            1
     number of electrons       =         8.00
     number of Kohn-Sham states=            4
     kinetic-energy cutoff     =      60.0000  Ry
     charge density cutoff     =     240.0000  Ry
     scf convergence threshold =      1.0E-06
     mixing beta               =       0.7000
     number of iterations used =            8  plain     mixing
     Exchange-correlation=  SLA  PZ   NOGX NOGC
                           (   1   1   0   0   0   0   0)

     celldm(1)=   6.740653  celldm(2)=   0.000000  celldm(3)=   0.000000
     celldm(4)=   0.000000  celldm(5)=   0.000000  celldm(6)=   0.000000

     crystal axes: (cart. coord. in units of alat)
               a(1) = (  -0.500000   0.000000   0.500000 )  
               a(2) = (   0.000000   0.500000   0.500000 )  
               a(3) = (  -0.500000   0.500000   0.000000 )  

     reciprocal axes: (cart. coord. in units 2 pi/alat)
               b(1) = ( -1.000000 -1.000000  1.000000 )  
               b(2) = (  1.000000  1.000000  1.000000 )  
               b(3) = ( -1.000000  1.000000 -1.000000 )  


     PseudoPot. # 1 for C  read from file:
     ./C.pz-vbc.UPF
     MD5 check sum: ab53dd623bfeb79c5a7b057bc96eae20
     Pseudo is Norm-conserving, Zval =  4.0
     Generated by new atomic code, or converted to UPF format
     Using radial grid of  269 points,  1 beta functions with: 
                l(1) =   0

     atomic species   valence    mass     pseudopotential
        C              4.00    12.01100     C ( 1.00)

     48 Sym. Ops., with inversion, found (24 have fractional translation)



   Cartesian axes

     site n.     atom                  positions (alat units)
         1           C   tau(   1) = (   0.0000000   0.0000000   0.0000000  )
         2           C   tau(   2) = (  -0.2500000   0.2500000   0.2500000  )

     number of k points=    28
                       cart. coord. in units 2pi/alat
        k(    1) = (  -0.0833333   0.0833333   0.0833333), wk =   0.0185185
        k(    2) = (  -0.2500000   0.2500000  -0.0833333), wk =   0.0555556
        k(    3) = (  -0.4166667   0.4166667  -0.2500000), wk =   0.0555556
        k(    4) = (   0.4166667  -0.4166667   0.5833333), wk =   0.0555556
        k(    5) = (   0.2500000  -0.2500000   0.4166667), wk =   0.0555556
        k(    6) = (   0.0833333  -0.0833333   0.2500000), wk =   0.0555556
        k(    7) = (  -0.0833333   0.4166667   0.0833333), wk =   0.0555556
        k(    8) = (  -0.2500000   0.5833333  -0.0833333), wk =   0.1111111
        k(    9) = (   0.5833333  -0.2500000   0.7500000), wk =   0.1111111
        k(   10) = (   0.4166667  -0.0833333   0.5833333), wk =   0.1111111
        k(   11) = (   0.2500000   0.0833333   0.4166667), wk =   0.1111111
        k(   12) = (  -0.0833333   0.7500000   0.0833333), wk =   0.0555556
        k(   13) = (   0.7500000  -0.0833333   0.9166667), wk =   0.1111111
        k(   14) = (   0.5833333   0.0833333   0.7500000), wk =   0.1111111
        k(   15) = (   0.4166667   0.2500000   0.5833333), wk =   0.1111111
        k(   16) = (  -0.0833333  -0.9166667   0.0833333), wk =   0.0555556
        k(   17) = (  -0.2500000  -0.7500000  -0.0833333), wk =   0.1111111
        k(   18) = (  -0.0833333  -0.5833333   0.0833333), wk =   0.0555556
        k(   19) = (  -0.2500000   0.2500000   0.2500000), wk =   0.0185185
        k(   20) = (  -0.4166667   0.4166667   0.0833333), wk =   0.0555556
        k(   21) = (   0.4166667  -0.4166667   0.9166667), wk =   0.0555556
        k(   22) = (   0.2500000  -0.2500000   0.7500000), wk =   0.0555556
        k(   23) = (  -0.2500000   0.5833333   0.2500000), wk =   0.0555556
        k(   24) = (   0.5833333  -0.2500000   1.0833333), wk =   0.1111111
        k(   25) = (   0.4166667  -0.0833333   0.9166667), wk =   0.1111111
        k(   26) = (  -0.2500000  -1.0833333   0.2500000), wk =   0.0555556
        k(   27) = (  -0.4166667   0.4166667   0.4166667), wk =   0.0185185
        k(   28) = (   0.4166667  -0.4166667   1.2500000), wk =   0.0555556

     Dense  grid:     4909 G-vectors     FFT dimensions: (  24,  24,  24)

     Estimated max dynamical RAM per process >       4.23 MB

     Initial potential from superposition of free atoms

     starting charge       7.9999, renormalised to       8.0000
     Starting wfcs are    8 randomized atomic wfcs

     total cpu time spent up to now is        0.1 secs

     Self-consistent Calculation

     iteration #  1     ecut=    60.00 Ry     beta= 0.70
     Davidson diagonalization with overlap
     ethr =  1.00E-02,  avg # of iterations =  2.0

     total cpu time spent up to now is        0.1 secs

     total energy              =     -22.77191391 Ry
     estimated scf accuracy    <       0.12035843 Ry

     iteration #  2     ecut=    60.00 Ry     beta= 0.70
     Davidson diagonalization with overlap
     ethr =  1.50E-03,  avg # of iterations =  1.4

     total cpu time spent up to now is        0.2 secs

     total energy              =     -22.77998817 Ry
     estimated scf accuracy    <       0.00259713 Ry

     iteration #  3     ecut=    60.00 Ry     beta= 0.70
     Davidson diagonalization with overlap
     ethr =  3.25E-05,  avg # of iterations =  2.1

     total cpu time spent up to now is        0.2 secs

     total energy              =     -22.78071524 Ry
     estimated scf accuracy    <       0.00007387 Ry

     iteration #  4     ecut=    60.00 Ry     beta= 0.70
     Davidson diagonalization with overlap
     ethr =  9.23E-07,  avg # of iterations =  3.0

     total cpu time spent up to now is        0.3 secs

     total energy              =     -22.78074696 Ry
     estimated scf accuracy    <       0.00000276 Ry

     iteration #  5     ecut=    60.00 Ry     beta= 0.70
     Davidson diagonalization with overlap
     ethr =  3.45E-08,  avg # of iterations =  3.7

     total cpu time spent up to now is        0.4 secs

     End of self-consistent calculation

          k =-0.0833 0.0833 0.0833 (   597 PWs)   bands (ev):

    -7.9186  11.9624  12.8577  12.8577

          k =-0.2500 0.2500-0.0833 (   594 PWs)   bands (ev):

    -6.9090   8.5266  10.4811  12.3015

          k =-0.4167 0.4167-0.2500 (   604 PWs)   bands (ev):

    -4.4498   3.0722   9.5576  10.8360

          k = 0.4167-0.4167 0.5833 (   598 PWs)   bands (ev):

    -2.3496   0.1526   9.7207  10.0102

          k = 0.2500-0.2500 0.4167 (   601 PWs)   bands (ev):

    -5.4185   4.8283  10.2176  10.8278

          k = 0.0833-0.0833 0.2500 (   587 PWs)   bands (ev):

    -7.4124  10.2902  11.4571  12.2523

          k =-0.0833 0.4167 0.0833 (   592 PWs)   bands (ev):

    -6.4070   8.5288   9.8259  10.5324

          k =-0.2500 0.5833-0.0833 (   602 PWs)   bands (ev):

    -4.4363   5.3272   7.5713   9.1908

          k = 0.5833-0.2500 0.7500 (   602 PWs)   bands (ev):

    -1.4518   1.0374   6.7941   8.4536

          k = 0.4167-0.0833 0.5833 (   605 PWs)   bands (ev):

    -3.4916   3.8033   6.3608   9.6050

          k = 0.2500 0.0833 0.4167 (   598 PWs)   bands (ev):

    -5.9103   6.8077   8.9780  11.1771

          k =-0.0833 0.7500 0.0833 (   601 PWs)   bands (ev):

    -2.9807   4.6082   6.8992   7.4822

          k = 0.7500-0.0833 0.9167 (   606 PWs)   bands (ev):

    -0.2838   2.0889   5.0635   6.6976

          k = 0.5833 0.0833 0.7500 (   600 PWs)   bands (ev):

    -0.6182   1.8225   4.5015   7.9160

          k = 0.4167 0.2500 0.5833 (   597 PWs)   bands (ev):

    -3.0553   1.7331   8.4662   9.7458

          k =-0.0833-0.9167 0.0833 (   608 PWs)   bands (ev):

    -0.6536   1.9550   6.2551   6.9877

          k =-0.2500-0.7500-0.0833 (   599 PWs)   bands (ev):

    -2.5293   3.9666   6.1524   7.4158

          k =-0.0833-0.5833 0.0833 (   601 PWs)   bands (ev):

    -4.9192   6.8047   8.4258   8.4513

          k =-0.2500 0.2500 0.2500 (   595 PWs)   bands (ev):

    -6.4091   6.5906  11.4288  11.4288

          k =-0.4167 0.4167 0.0833 (   601 PWs)   bands (ev):

    -4.9283   5.1614   7.6124  11.0035

          k = 0.4167-0.4167 0.9167 (   599 PWs)   bands (ev):

    -2.1460   2.5599   5.2526   9.3001

          k = 0.2500-0.2500 0.7500 (   602 PWs)   bands (ev):

    -2.1122   2.4299   6.4227   8.2547

          k =-0.2500 0.5833 0.2500 (   603 PWs)   bands (ev):

    -3.9632   3.4224   8.9122   9.0882

          k = 0.5833-0.2500 1.0833 (   600 PWs)   bands (ev):

    -1.6752   2.8010   5.3537   7.5218

          k = 0.4167-0.0833 0.9167 (   608 PWs)   bands (ev):

     0.2673   1.9984   4.4146   6.0037

          k =-0.2500-1.0833 0.2500 (   606 PWs)   bands (ev):

    -0.1269   1.7715   4.1669   7.8192

          k =-0.4167 0.4167 0.4167 (   601 PWs)   bands (ev):

    -3.5269   1.3034  10.4857  10.4857

          k = 0.4167-0.4167 1.2500 (   599 PWs)   bands (ev):

    -1.9045   0.6193   7.6958   9.5646

     highest occupied level (ev):    12.8577

!    total energy              =     -22.78074886 Ry
     estimated scf accuracy    <       0.00000004 Ry

     The total energy is the sum of the following terms:
     one-electron contribution =       7.97689981 Ry
     hartree contribution      =       1.87003410 Ry
     xc contribution           =      -7.05485842 Ry
     ewald contribution        =     -25.57282436 Ry

     convergence has been achieved in   5 iterations

     Writing all to output data dir ./pwscf.save/
 
     init_run     :      0.04s CPU      0.05s WALL (       1 calls)
     electrons    :      0.27s CPU      0.29s WALL (       1 calls)

     Called by init_run:
     wfcinit      :      0.03s CPU      0.04s WALL (       1 calls)
     potinit      :      0.00s CPU      0.00s WALL (       1 calls)
     hinit0       :      0.01s CPU      0.01s WALL (       1 calls)

     Called by electrons:
     c_bands      :      0.22s CPU      0.24s WALL (       5 calls)
     sum_band     :      0.04s CPU      0.04s WALL (       5 calls)
     v_of_rho     :      0.00s CPU      0.00s WALL (       6 calls)
     mix_rho      :      0.00s CPU      0.00s WALL (       5 calls)

     Called by c_bands:
     init_us_2    :      0.01s CPU      0.01s WALL (     308 calls)
     init_us_2:cp :      0.01s CPU      0.01s WALL (     308 calls)
     cegterg      :      0.21s CPU      0.23s WALL (     140 calls)

     Called by *egterg:
     cdiaghg      :      0.02s CPU      0.02s WALL (     480 calls)
     h_psi        :      0.19s CPU      0.20s WALL (     508 calls)
     g_psi        :      0.00s CPU      0.00s WALL (     340 calls)

     Called by h_psi:
     h_psi:calbec :      0.00s CPU      0.00s WALL (     508 calls)
     vloc_psi     :      0.17s CPU      0.19s WALL (     508 calls)
     add_vuspsi   :      0.00s CPU      0.00s WALL (     508 calls)

     General routines
     calbec       :      0.00s CPU      0.00s WALL (     508 calls)
     fft          :      0.00s CPU      0.00s WALL (      17 calls)
     ffts         :      0.00s CPU      0.00s WALL (       5 calls)
     fftw         :      0.15s CPU      0.16s WALL (    4420 calls)
 
     Parallel routines
 
     PWSCF        :      0.34s CPU      0.38s WALL

 
   This run was terminated on:   9:45:16   2Jun2023            

=------------------------------------------------------------------------------=
   JOB DONE.
=------------------------------------------------------------------------------=
