
     Program PHONON v.7.1 starts on 18Jul2024 at 11:42:44 

     This program is part of the open-source Quantum ESPRESSO suite
     for quantum simulation of materials; please cite
         "P. Giannozzi et al., J. Phys.:Condens. Matter 21 395502 (2009);
         "P. Giannozzi et al., J. Phys.:Condens. Matter 29 465901 (2017);
         "P. Giannozzi et al., J. Chem. Phys. 152 154105 (2020);
          URL http://www.quantum-espresso.org", 
     in publications or presentations arising from this work. More details at
     http://www.quantum-espresso.org/quote

     Parallel version (MPI), running on     1 processors

     MPI processes distributed on     1 nodes
     4649 MiB available memory on the printing compute node when the environment starts
 
     Waiting for input...
     Reading input from standard input

     Reading xml data from directory:

     ./CD.save/

     IMPORTANT: XC functional enforced from input :
     Exchange-correlation= PZ
                           (   1   1   0   0   0   0   0)
     Any further DFT definition will be discarded
     Please, verify this is what you really want

 
     G-vector sticks info
     --------------------
     sticks:   dense  smooth     PW     G-vecs:    dense   smooth      PW
     Sum         637     379    121                10417     4909     941
 
     Using Pencil Decomposition
 
     Reading collected, re-writing distributed wavefunctions


     Dynamical matrices for ( 4, 4, 4)  uniform grid of q-points
     (   8 q-points):
       N         xq(1)         xq(2)         xq(3) 
       1   0.000000000   0.000000000   0.000000000
       2  -0.250000000   0.250000000  -0.250000000
       3   0.500000000  -0.500000000   0.500000000
       4   0.000000000   0.500000000   0.000000000
       5   0.750000000  -0.250000000   0.750000000
       6   0.500000000   0.000000000   0.500000000
       7   0.000000000  -1.000000000   0.000000000
       8  -0.500000000  -1.000000000   0.000000000

     Calculation of q =    0.0000000   0.0000000   0.0000000

     phonons of Carbon diamond on a grid                                        

     bravais-lattice index     =            2
     lattice parameter (alat)  =       6.7407  a.u.
     unit-cell volume          =      76.5678 (a.u.)^3
     number of atoms/cell      =            2
     number of atomic types    =            1
     kinetic-energy cut-off    =      60.0000  Ry
     charge density cut-off    =     400.0000  Ry
     convergence threshold     =      1.0E-12
     beta                      =       0.7000
     number of iterations used =            4
     Exchange-correlation= PZ
                           (   1   1   0   0   0   0   0)


     celldm(1)=    6.74065  celldm(2)=    0.00000  celldm(3)=    0.00000
     celldm(4)=    0.00000  celldm(5)=    0.00000  celldm(6)=    0.00000

     crystal axes: (cart. coord. in units of alat)
               a(1) = ( -0.5000  0.0000  0.5000 )  
               a(2) = (  0.0000  0.5000  0.5000 )  
               a(3) = ( -0.5000  0.5000  0.0000 )  

     reciprocal axes: (cart. coord. in units 2 pi/alat)
               b(1) = ( -1.0000 -1.0000  1.0000 )  
               b(2) = (  1.0000  1.0000  1.0000 )  
               b(3) = ( -1.0000  1.0000 -1.0000 )  


     Atoms inside the unit cell: 

     Cartesian axes

     site n.  atom      mass           positions (alat units)
        1     C   12.0110   tau(    1) = (    0.00000    0.00000    0.00000  )
        2     C   12.0110   tau(    2) = (   -0.25000    0.25000    0.25000  )

     Computing dynamical matrix for 
                    q = (   0.0000000   0.0000000   0.0000000 )
 
     49 Sym.Ops. (with q -> -q+G )


     G cutoff =  460.3670  (  10417 G-vectors)     FFT grid: ( 32, 32, 32)
     G cutoff =  276.2202  (   4909 G-vectors)  smooth grid: ( 24, 24, 24)
     number of k points=    29

     PseudoPot. # 1 for C  read from file:
     ./C.pz-vbc.UPF
     MD5 check sum: ab53dd623bfeb79c5a7b057bc96eae20
     Pseudo is Norm-conserving, Zval =  4.0
     Generated by new atomic code, or converted to UPF format
     Using radial grid of  269 points,  1 beta functions with: 
                l(1) =   0

     Mode symmetry, O_h (m-3m)  point group:


     Electric field:
     Dielectric constant
     Born effective charges in two ways 


     Atomic displacements:
     There are    2 irreducible representations

     Representation     1      3 modes -  To be done

     Representation     2      3 modes -  To be done



     Alpha used in Ewald sum =   2.8000
     PHONON       :      0.09s CPU      0.10s WALL


     Electric Fields Calculation

      iter #   1 total cpu time :     1.5 secs   av.it.:   5.4
      thresh= 1.000E-02 alpha_mix =  0.700 |ddv_scf|^2 =  1.402E-08

      iter #   2 total cpu time :     2.1 secs   av.it.:   9.6
      thresh= 1.184E-05 alpha_mix =  0.700 |ddv_scf|^2 =  1.513E-10

      iter #   3 total cpu time :     2.8 secs   av.it.:   9.9
      thresh= 1.230E-06 alpha_mix =  0.700 |ddv_scf|^2 =  7.739E-12

      iter #   4 total cpu time :     3.4 secs   av.it.:   9.9
      thresh= 2.782E-07 alpha_mix =  0.700 |ddv_scf|^2 =  1.269E-14

     End of electric fields calculation

          Dielectric constant in cartesian axis 

          (       5.855235309       0.000000000       0.000000000 )
          (       0.000000000       5.855235309       0.000000000 )
          (       0.000000000      -0.000000000       5.855235309 )

          Effective charges (d Force / dE) in cartesian axis without acoustic sum rule applied (asr)

           atom      1   C  Mean Z*:       -0.00683
      Ex  (       -0.00683       -0.00000       -0.00000 )
      Ey  (        0.00000       -0.00683       -0.00000 )
      Ez  (        0.00000        0.00000       -0.00683 )
           atom      2   C  Mean Z*:       -0.00683
      Ex  (       -0.00683       -0.00000        0.00000 )
      Ey  (       -0.00000       -0.00683        0.00000 )
      Ez  (       -0.00000        0.00000       -0.00683 )

          Effective charges Sum: Mean:       -0.01365
             -0.01365       -0.00000        0.00000
             -0.00000       -0.01365        0.00000
             -0.00000       -0.00000       -0.01365

          Effective charges (d Force / dE) in cartesian axis with asr applied: 
           atom      1   C  Mean Z*:        0.00000
      E*x (        0.00000        0.00000       -0.00000 )
      E*y (        0.00000        0.00000       -0.00000 )
      E*z (        0.00000       -0.00000        0.00000 )
           atom      2   C  Mean Z*:       -0.00000
      E*x (       -0.00000       -0.00000        0.00000 )
      E*y (       -0.00000       -0.00000        0.00000 )
      E*z (       -0.00000        0.00000       -0.00000 )


     Representation #   1 modes #   1   2   3

     Self-consistent Calculation

      iter #   1 total cpu time :     4.1 secs   av.it.:   6.1
      thresh= 1.000E-02 alpha_mix =  0.700 |ddv_scf|^2 =  2.380E-07

      iter #   2 total cpu time :     4.7 secs   av.it.:   9.7
      thresh= 4.878E-05 alpha_mix =  0.700 |ddv_scf|^2 =  6.117E-10

      iter #   3 total cpu time :     5.4 secs   av.it.:   9.6
      thresh= 2.473E-06 alpha_mix =  0.700 |ddv_scf|^2 =  1.583E-11

      iter #   4 total cpu time :     6.1 secs   av.it.:   8.9
      thresh= 3.979E-07 alpha_mix =  0.700 |ddv_scf|^2 =  1.438E-14

     End of self-consistent calculation

     Convergence has been achieved 


     Representation #   2 modes #   4   5   6

     Self-consistent Calculation

      iter #   1 total cpu time :     6.6 secs   av.it.:   6.2
      thresh= 1.000E-02 alpha_mix =  0.700 |ddv_scf|^2 =  1.559E-07

      iter #   2 total cpu time :     7.3 secs   av.it.:   9.9
      thresh= 3.949E-05 alpha_mix =  0.700 |ddv_scf|^2 =  2.360E-10

      iter #   3 total cpu time :     8.0 secs   av.it.:   9.3
      thresh= 1.536E-06 alpha_mix =  0.700 |ddv_scf|^2 =  2.146E-11

      iter #   4 total cpu time :     8.6 secs   av.it.:   9.3
      thresh= 4.632E-07 alpha_mix =  0.700 |ddv_scf|^2 =  1.233E-14

     End of self-consistent calculation

     Convergence has been achieved 
 
     Number of q in the star =    1
     List of q in the star:
          1   0.000000000   0.000000000   0.000000000

          Dielectric constant in cartesian axis 

          (       5.855235309       0.000000000       0.000000000 )
          (       0.000000000       5.855235309       0.000000000 )
          (       0.000000000      -0.000000000       5.855235309 )

          Effective charges (d Force / dE) in cartesian axis without acoustic sum rule applied (asr)

           atom      1   C  Mean Z*:       -0.00683
      Ex  (       -0.00683       -0.00000       -0.00000 )
      Ey  (        0.00000       -0.00683       -0.00000 )
      Ez  (        0.00000        0.00000       -0.00683 )
           atom      2   C  Mean Z*:       -0.00683
      Ex  (       -0.00683       -0.00000        0.00000 )
      Ey  (       -0.00000       -0.00683        0.00000 )
      Ez  (       -0.00000        0.00000       -0.00683 )

          Effective charges Sum: Mean:       -0.01365
             -0.01365       -0.00000        0.00000
             -0.00000       -0.01365        0.00000
             -0.00000       -0.00000       -0.01365

          Effective charges (d Force / dE) in cartesian axis with asr applied: 
           atom      1   C  Mean Z*:        0.00000
      E*x (        0.00000        0.00000       -0.00000 )
      E*y (        0.00000        0.00000       -0.00000 )
      E*z (        0.00000       -0.00000        0.00000 )
           atom      2   C  Mean Z*:       -0.00000
      E*x (       -0.00000       -0.00000        0.00000 )
      E*y (       -0.00000       -0.00000        0.00000 )
      E*z (       -0.00000        0.00000       -0.00000 )

          Effective charges (d P / du) in cartesian axis 

           atom      1   C  
      Px  (       -0.00654        0.00000        0.00000 )
      Py  (        0.00000       -0.00654       -0.00000 )
      Pz  (        0.00000       -0.00000       -0.00654 )
           atom      2   C  
      Px  (       -0.00654       -0.00000       -0.00000 )
      Py  (       -0.00000       -0.00654        0.00000 )
      Pz  (        0.00000        0.00000       -0.00654 )

     Diagonalizing the dynamical matrix

     q = (    0.000000000   0.000000000   0.000000000 ) 

 **************************************************************************
     freq (    1) =       0.343655 [THz] =      11.463099 [cm-1]
     freq (    2) =       0.343655 [THz] =      11.463099 [cm-1]
     freq (    3) =       0.343655 [THz] =      11.463099 [cm-1]
     freq (    4) =      38.186746 [THz] =    1273.772737 [cm-1]
     freq (    5) =      38.186746 [THz] =    1273.772737 [cm-1]
     freq (    6) =      38.186746 [THz] =    1273.772737 [cm-1]
 **************************************************************************

     Mode symmetry, O_h (m-3m)  point group:

     freq (   1-   3) =         11.5  [cm-1]   --> T_1u G_15  G_4- I  
     freq (   4-   6) =       1273.8  [cm-1]   --> T_2g G_25' G_5+ R  

     Calculation of q =   -0.2500000   0.2500000  -0.2500000
     Subspace diagonalization in iterative solution of the eigenvalue problem:
     a serial algorithm will be used

 
     G-vector sticks info
     --------------------
     sticks:   dense  smooth     PW     G-vecs:    dense   smooth      PW
     Sum         637     379    139                10417     4909    1037
 
     Using Pencil Decomposition
 

     Title: 
     phonons of Carbon diamond on a grid                                        


     bravais-lattice index     =            2
     lattice parameter (alat)  =       6.7407  a.u.
     unit-cell volume          =      76.5678 (a.u.)^3
     number of atoms/cell      =            2
     number of atomic types    =            1
     number of electrons       =         8.00
     number of Kohn-Sham states=            4
     kinetic-energy cutoff     =      60.0000  Ry
     charge density cutoff     =     400.0000  Ry
     Exchange-correlation= PZ
                           (   1   1   0   0   0   0   0)

     celldm(1)=   6.740653  celldm(2)=   0.000000  celldm(3)=   0.000000
     celldm(4)=   0.000000  celldm(5)=   0.000000  celldm(6)=   0.000000

     crystal axes: (cart. coord. in units of alat)
               a(1) = (  -0.500000   0.000000   0.500000 )  
               a(2) = (   0.000000   0.500000   0.500000 )  
               a(3) = (  -0.500000   0.500000   0.000000 )  

     reciprocal axes: (cart. coord. in units 2 pi/alat)
               b(1) = ( -1.000000 -1.000000  1.000000 )  
               b(2) = (  1.000000  1.000000  1.000000 )  
               b(3) = ( -1.000000  1.000000 -1.000000 )  


     PseudoPot. # 1 for C  read from file:
     ./C.pz-vbc.UPF
     MD5 check sum: ab53dd623bfeb79c5a7b057bc96eae20
     Pseudo is Norm-conserving, Zval =  4.0
     Generated by new atomic code, or converted to UPF format
     Using radial grid of  269 points,  1 beta functions with: 
                l(1) =   0

     atomic species   valence    mass     pseudopotential
        C              4.00    12.01100     C ( 1.00)

     48 Sym. Ops., with inversion, found



   Cartesian axes

     site n.     atom                  positions (alat units)
         1           C   tau(   1) = (   0.0000000   0.0000000   0.0000000  )
         2           C   tau(   2) = (  -0.2500000   0.2500000   0.2500000  )

     number of k points=   240

     Number of k-points >= 100: set verbosity='high' to print them.

     Dense  grid:    10417 G-vectors     FFT dimensions: (  32,  32,  32)

     Smooth grid:     4909 G-vectors     FFT dimensions: (  24,  24,  24)

     Estimated max dynamical RAM per process >       3.97 MB

     The potential is recalculated from file :
     ./_ph0/CD.save/charge-density

     Starting wfcs are    8 atomic wfcs

     Band Structure Calculation
     Davidson diagonalization with overlap

     ethr =  1.25E-10,  avg # of iterations =  9.4

     total cpu time spent up to now is        1.8 secs

     End of band structure calculation

     Number of k-points >= 100: set verbosity='high' to print the bands.

     highest occupied level (ev):    13.1808

     Writing config to output data dir ./_ph0/CD.save/

     phonons of Carbon diamond on a grid                                        

     bravais-lattice index     =            2
     lattice parameter (alat)  =       6.7407  a.u.
     unit-cell volume          =      76.5678 (a.u.)^3
     number of atoms/cell      =            2
     number of atomic types    =            1
     kinetic-energy cut-off    =      60.0000  Ry
     charge density cut-off    =     400.0000  Ry
     convergence threshold     =      1.0E-12
     beta                      =       0.7000
     number of iterations used =            4
     Exchange-correlation= PZ
                           (   1   1   0   0   0   0   0)


     celldm(1)=    6.74065  celldm(2)=    0.00000  celldm(3)=    0.00000
     celldm(4)=    0.00000  celldm(5)=    0.00000  celldm(6)=    0.00000

     crystal axes: (cart. coord. in units of alat)
               a(1) = ( -0.5000  0.0000  0.5000 )  
               a(2) = (  0.0000  0.5000  0.5000 )  
               a(3) = ( -0.5000  0.5000  0.0000 )  

     reciprocal axes: (cart. coord. in units 2 pi/alat)
               b(1) = ( -1.0000 -1.0000  1.0000 )  
               b(2) = (  1.0000  1.0000  1.0000 )  
               b(3) = ( -1.0000  1.0000 -1.0000 )  


     Atoms inside the unit cell: 

     Cartesian axes

     site n.  atom      mass           positions (alat units)
        1     C   12.0110   tau(    1) = (    0.00000    0.00000    0.00000  )
        2     C   12.0110   tau(    2) = (   -0.25000    0.25000    0.25000  )

     Computing dynamical matrix for 
                    q = (  -0.2500000   0.2500000  -0.2500000 )
 
      6 Sym.Ops. (no q -> -q+G )


     G cutoff =  460.3670  (  10417 G-vectors)     FFT grid: ( 32, 32, 32)
     G cutoff =  276.2202  (   4909 G-vectors)  smooth grid: ( 24, 24, 24)
     number of k points=   240

     PseudoPot. # 1 for C  read from file:
     ./C.pz-vbc.UPF
     MD5 check sum: ab53dd623bfeb79c5a7b057bc96eae20
     Pseudo is Norm-conserving, Zval =  4.0
     Generated by new atomic code, or converted to UPF format
     Using radial grid of  269 points,  1 beta functions with: 
                l(1) =   0

     Mode symmetry, C_3v (3m)   point group:


     Atomic displacements:
     There are    4 irreducible representations

     Representation     1      1 modes -  To be done

     Representation     2      1 modes -  To be done

     Representation     3      2 modes -  To be done

     Representation     4      2 modes -  To be done



     Alpha used in Ewald sum =   2.8000
     PHONON       :      8.51s CPU     10.57s WALL



     Representation #   1 mode #   1

     Self-consistent Calculation

      iter #   1 total cpu time :    11.2 secs   av.it.:   6.9
      thresh= 1.000E-02 alpha_mix =  0.700 |ddv_scf|^2 =  1.192E-03

      iter #   2 total cpu time :    12.0 secs   av.it.:   8.0
      thresh= 3.453E-03 alpha_mix =  0.700 |ddv_scf|^2 =  4.653E-03

      iter #   3 total cpu time :    12.6 secs   av.it.:   6.8
      thresh= 6.821E-03 alpha_mix =  0.700 |ddv_scf|^2 =  1.193E-07

      iter #   4 total cpu time :    13.4 secs   av.it.:   9.1
      thresh= 3.454E-05 alpha_mix =  0.700 |ddv_scf|^2 =  1.964E-08

      iter #   5 total cpu time :    14.2 secs   av.it.:   8.6
      thresh= 1.401E-05 alpha_mix =  0.700 |ddv_scf|^2 =  9.041E-11

      iter #   6 total cpu time :    15.0 secs   av.it.:   8.9
      thresh= 9.508E-07 alpha_mix =  0.700 |ddv_scf|^2 =  4.581E-12

      iter #   7 total cpu time :    15.8 secs   av.it.:   8.6
      thresh= 2.140E-07 alpha_mix =  0.700 |ddv_scf|^2 =  1.737E-13

     End of self-consistent calculation

     Convergence has been achieved 


     Representation #   2 mode #   2

     Self-consistent Calculation

      iter #   1 total cpu time :    16.5 secs   av.it.:   6.9
      thresh= 1.000E-02 alpha_mix =  0.700 |ddv_scf|^2 =  1.192E-03

      iter #   2 total cpu time :    17.2 secs   av.it.:   8.0
      thresh= 3.453E-03 alpha_mix =  0.700 |ddv_scf|^2 =  4.653E-03

      iter #   3 total cpu time :    17.9 secs   av.it.:   6.8
      thresh= 6.821E-03 alpha_mix =  0.700 |ddv_scf|^2 =  1.194E-07

      iter #   4 total cpu time :    18.7 secs   av.it.:   9.1
      thresh= 3.456E-05 alpha_mix =  0.700 |ddv_scf|^2 =  1.967E-08

      iter #   5 total cpu time :    19.4 secs   av.it.:   8.6
      thresh= 1.403E-05 alpha_mix =  0.700 |ddv_scf|^2 =  9.074E-11

      iter #   6 total cpu time :    20.3 secs   av.it.:   8.9
      thresh= 9.526E-07 alpha_mix =  0.700 |ddv_scf|^2 =  4.817E-12

      iter #   7 total cpu time :    21.0 secs   av.it.:   8.6
      thresh= 2.195E-07 alpha_mix =  0.700 |ddv_scf|^2 =  8.722E-13

     End of self-consistent calculation

     Convergence has been achieved 


     Representation #   3 modes #   3   4

     Self-consistent Calculation

      iter #   1 total cpu time :    22.3 secs   av.it.:   6.3
      thresh= 1.000E-02 alpha_mix =  0.700 |ddv_scf|^2 =  5.512E-07

      iter #   2 total cpu time :    24.0 secs   av.it.:  10.0
      thresh= 7.424E-05 alpha_mix =  0.700 |ddv_scf|^2 =  1.006E-09

      iter #   3 total cpu time :    25.7 secs   av.it.:   9.8
      thresh= 3.172E-06 alpha_mix =  0.700 |ddv_scf|^2 =  5.048E-11

      iter #   4 total cpu time :    27.3 secs   av.it.:   9.3
      thresh= 7.105E-07 alpha_mix =  0.700 |ddv_scf|^2 =  1.369E-12

      iter #   5 total cpu time :    28.9 secs   av.it.:   9.1
      thresh= 1.170E-07 alpha_mix =  0.700 |ddv_scf|^2 =  3.084E-15

     End of self-consistent calculation

     Convergence has been achieved 


     Representation #   4 modes #   5   6

     Self-consistent Calculation

      iter #   1 total cpu time :    30.2 secs   av.it.:   6.3
      thresh= 1.000E-02 alpha_mix =  0.700 |ddv_scf|^2 =  5.512E-07

      iter #   2 total cpu time :    31.9 secs   av.it.:   9.7
      thresh= 7.424E-05 alpha_mix =  0.700 |ddv_scf|^2 =  1.006E-09

      iter #   3 total cpu time :    33.6 secs   av.it.:   9.6
      thresh= 3.172E-06 alpha_mix =  0.700 |ddv_scf|^2 =  5.049E-11

      iter #   4 total cpu time :    35.2 secs   av.it.:   9.0
      thresh= 7.105E-07 alpha_mix =  0.700 |ddv_scf|^2 =  1.369E-12

      iter #   5 total cpu time :    36.7 secs   av.it.:   8.9
      thresh= 1.170E-07 alpha_mix =  0.700 |ddv_scf|^2 =  3.084E-15

     End of self-consistent calculation

     Convergence has been achieved 
 
     Number of q in the star =    8
     List of q in the star:
          1  -0.250000000   0.250000000  -0.250000000
          2   0.250000000  -0.250000000  -0.250000000
          3   0.250000000  -0.250000000   0.250000000
          4   0.250000000   0.250000000   0.250000000
          5  -0.250000000  -0.250000000  -0.250000000
          6  -0.250000000  -0.250000000   0.250000000
          7  -0.250000000   0.250000000   0.250000000
          8   0.250000000   0.250000000  -0.250000000

     Diagonalizing the dynamical matrix

     q = (   -0.250000000   0.250000000  -0.250000000 ) 

 **************************************************************************
     freq (    1) =      12.231524 [THz] =     407.999727 [cm-1]
     freq (    2) =      12.231524 [THz] =     407.999727 [cm-1]
     freq (    3) =      20.168511 [THz] =     672.749129 [cm-1]
     freq (    4) =      36.501751 [THz] =    1217.567353 [cm-1]
     freq (    5) =      36.501751 [THz] =    1217.567353 [cm-1]
     freq (    6) =      38.635466 [THz] =    1288.740435 [cm-1]
 **************************************************************************

     Mode symmetry, C_3v (3m)   point group:

     freq (   1-   2) =        408.0  [cm-1]   --> E    L_3           
     freq (   3-   3) =        672.7  [cm-1]   --> A_1  L_1           
     freq (   4-   5) =       1217.6  [cm-1]   --> E    L_3           
     freq (   6-   6) =       1288.7  [cm-1]   --> A_1  L_1           

     Calculation of q =    0.5000000  -0.5000000   0.5000000
 
     G-vector sticks info
     --------------------
     sticks:   dense  smooth     PW     G-vecs:    dense   smooth      PW
     Sum         637     379    151                10417     4909    1243
 
     Using Pencil Decomposition
 

     Title: 
     phonons of Carbon diamond on a grid                                        


     bravais-lattice index     =            2
     lattice parameter (alat)  =       6.7407  a.u.
     unit-cell volume          =      76.5678 (a.u.)^3
     number of atoms/cell      =            2
     number of atomic types    =            1
     number of electrons       =         8.00
     number of Kohn-Sham states=            4
     kinetic-energy cutoff     =      60.0000  Ry
     charge density cutoff     =     400.0000  Ry
     Exchange-correlation= PZ
                           (   1   1   0   0   0   0   0)

     celldm(1)=   6.740653  celldm(2)=   0.000000  celldm(3)=   0.000000
     celldm(4)=   0.000000  celldm(5)=   0.000000  celldm(6)=   0.000000

     crystal axes: (cart. coord. in units of alat)
               a(1) = (  -0.500000   0.000000   0.500000 )  
               a(2) = (   0.000000   0.500000   0.500000 )  
               a(3) = (  -0.500000   0.500000   0.000000 )  

     reciprocal axes: (cart. coord. in units 2 pi/alat)
               b(1) = ( -1.000000 -1.000000  1.000000 )  
               b(2) = (  1.000000  1.000000  1.000000 )  
               b(3) = ( -1.000000  1.000000 -1.000000 )  


     PseudoPot. # 1 for C  read from file:
     ./C.pz-vbc.UPF
     MD5 check sum: ab53dd623bfeb79c5a7b057bc96eae20
     Pseudo is Norm-conserving, Zval =  4.0
     Generated by new atomic code, or converted to UPF format
     Using radial grid of  269 points,  1 beta functions with: 
                l(1) =   0

     atomic species   valence    mass     pseudopotential
        C              4.00    12.01100     C ( 1.00)

     48 Sym. Ops., with inversion, found



   Cartesian axes

     site n.     atom                  positions (alat units)
         1           C   tau(   1) = (   0.0000000   0.0000000   0.0000000  )
         2           C   tau(   2) = (  -0.2500000   0.2500000   0.2500000  )

     number of k points=   130

     Number of k-points >= 100: set verbosity='high' to print them.

     Dense  grid:    10417 G-vectors     FFT dimensions: (  32,  32,  32)

     Smooth grid:     4909 G-vectors     FFT dimensions: (  24,  24,  24)

     Estimated max dynamical RAM per process >       3.97 MB

     The potential is recalculated from file :
     ./_ph0/CD.save/charge-density

     Starting wfcs are    8 atomic wfcs

     Band Structure Calculation
     Davidson diagonalization with overlap

     ethr =  1.25E-10,  avg # of iterations =  9.4

     total cpu time spent up to now is        2.8 secs

     End of band structure calculation

     Number of k-points >= 100: set verbosity='high' to print the bands.

     highest occupied level (ev):    13.1808

     Writing config to output data dir ./_ph0/CD.save/

     phonons of Carbon diamond on a grid                                        

     bravais-lattice index     =            2
     lattice parameter (alat)  =       6.7407  a.u.
     unit-cell volume          =      76.5678 (a.u.)^3
     number of atoms/cell      =            2
     number of atomic types    =            1
     kinetic-energy cut-off    =      60.0000  Ry
     charge density cut-off    =     400.0000  Ry
     convergence threshold     =      1.0E-12
     beta                      =       0.7000
     number of iterations used =            4
     Exchange-correlation= PZ
                           (   1   1   0   0   0   0   0)


     celldm(1)=    6.74065  celldm(2)=    0.00000  celldm(3)=    0.00000
     celldm(4)=    0.00000  celldm(5)=    0.00000  celldm(6)=    0.00000

     crystal axes: (cart. coord. in units of alat)
               a(1) = ( -0.5000  0.0000  0.5000 )  
               a(2) = (  0.0000  0.5000  0.5000 )  
               a(3) = ( -0.5000  0.5000  0.0000 )  

     reciprocal axes: (cart. coord. in units 2 pi/alat)
               b(1) = ( -1.0000 -1.0000  1.0000 )  
               b(2) = (  1.0000  1.0000  1.0000 )  
               b(3) = ( -1.0000  1.0000 -1.0000 )  


     Atoms inside the unit cell: 

     Cartesian axes

     site n.  atom      mass           positions (alat units)
        1     C   12.0110   tau(    1) = (    0.00000    0.00000    0.00000  )
        2     C   12.0110   tau(    2) = (   -0.25000    0.25000    0.25000  )

     Computing dynamical matrix for 
                    q = (   0.5000000  -0.5000000   0.5000000 )
 
     13 Sym.Ops. (with q -> -q+G )


     G cutoff =  460.3670  (  10417 G-vectors)     FFT grid: ( 32, 32, 32)
     G cutoff =  276.2202  (   4909 G-vectors)  smooth grid: ( 24, 24, 24)
     number of k points=   130

     PseudoPot. # 1 for C  read from file:
     ./C.pz-vbc.UPF
     MD5 check sum: ab53dd623bfeb79c5a7b057bc96eae20
     Pseudo is Norm-conserving, Zval =  4.0
     Generated by new atomic code, or converted to UPF format
     Using radial grid of  269 points,  1 beta functions with: 
                l(1) =   0


     Atomic displacements:
     There are    4 irreducible representations

     Representation     1      1 modes -  To be done

     Representation     2      1 modes -  To be done

     Representation     3      2 modes -  To be done

     Representation     4      2 modes -  To be done



     Alpha used in Ewald sum =   2.8000
     PHONON       :     30.02s CPU     37.75s WALL



     Representation #   1 mode #   1

     Self-consistent Calculation

      iter #   1 total cpu time :    38.1 secs   av.it.:   6.0
      thresh= 1.000E-02 alpha_mix =  0.700 |ddv_scf|^2 =  2.387E-05

      iter #   2 total cpu time :    38.5 secs   av.it.:   8.4
      thresh= 4.886E-04 alpha_mix =  0.700 |ddv_scf|^2 =  9.994E-06

      iter #   3 total cpu time :    38.9 secs   av.it.:   8.0
      thresh= 3.161E-04 alpha_mix =  0.700 |ddv_scf|^2 =  2.012E-08

      iter #   4 total cpu time :    39.3 secs   av.it.:   7.9
      thresh= 1.418E-05 alpha_mix =  0.700 |ddv_scf|^2 =  2.595E-11

      iter #   5 total cpu time :    39.7 secs   av.it.:   8.0
      thresh= 5.094E-07 alpha_mix =  0.700 |ddv_scf|^2 =  8.105E-13

     End of self-consistent calculation

     Convergence has been achieved 


     Representation #   2 mode #   2

     Self-consistent Calculation

      iter #   1 total cpu time :    40.0 secs   av.it.:   6.8
      thresh= 1.000E-02 alpha_mix =  0.700 |ddv_scf|^2 =  2.400E-04

      iter #   2 total cpu time :    40.5 secs   av.it.:   8.6
      thresh= 1.549E-03 alpha_mix =  0.700 |ddv_scf|^2 =  2.419E-04

      iter #   3 total cpu time :    40.9 secs   av.it.:   8.0
      thresh= 1.555E-03 alpha_mix =  0.700 |ddv_scf|^2 =  4.267E-07

      iter #   4 total cpu time :    41.3 secs   av.it.:   8.4
      thresh= 6.532E-05 alpha_mix =  0.700 |ddv_scf|^2 =  2.634E-10

      iter #   5 total cpu time :    41.7 secs   av.it.:   8.4
      thresh= 1.623E-06 alpha_mix =  0.700 |ddv_scf|^2 =  1.459E-11

      iter #   6 total cpu time :    42.1 secs   av.it.:   8.2
      thresh= 3.819E-07 alpha_mix =  0.700 |ddv_scf|^2 =  1.313E-13

     End of self-consistent calculation

     Convergence has been achieved 


     Representation #   3 modes #   3   4

     Self-consistent Calculation

      iter #   1 total cpu time :    42.7 secs   av.it.:   6.2
      thresh= 1.000E-02 alpha_mix =  0.700 |ddv_scf|^2 =  1.125E-06

      iter #   2 total cpu time :    43.6 secs   av.it.:   9.7
      thresh= 1.061E-04 alpha_mix =  0.700 |ddv_scf|^2 =  2.669E-09

      iter #   3 total cpu time :    44.5 secs   av.it.:   9.7
      thresh= 5.166E-06 alpha_mix =  0.700 |ddv_scf|^2 =  6.014E-11

      iter #   4 total cpu time :    45.3 secs   av.it.:   9.1
      thresh= 7.755E-07 alpha_mix =  0.700 |ddv_scf|^2 =  1.932E-13

     End of self-consistent calculation

     Convergence has been achieved 


     Representation #   4 modes #   5   6

     Self-consistent Calculation

      iter #   1 total cpu time :    46.0 secs   av.it.:   6.2
      thresh= 1.000E-02 alpha_mix =  0.700 |ddv_scf|^2 =  1.757E-07

      iter #   2 total cpu time :    46.8 secs   av.it.:   9.8
      thresh= 4.192E-05 alpha_mix =  0.700 |ddv_scf|^2 =  7.358E-10

      iter #   3 total cpu time :    47.7 secs   av.it.:   9.4
      thresh= 2.713E-06 alpha_mix =  0.700 |ddv_scf|^2 =  3.905E-11

      iter #   4 total cpu time :    48.5 secs   av.it.:   9.2
      thresh= 6.249E-07 alpha_mix =  0.700 |ddv_scf|^2 =  5.714E-14

     End of self-consistent calculation

     Convergence has been achieved 
 
     Number of q in the star =    4
     List of q in the star:
          1   0.500000000  -0.500000000   0.500000000
          2   0.500000000   0.500000000   0.500000000
          3  -0.500000000   0.500000000   0.500000000
          4   0.500000000   0.500000000  -0.500000000

     Diagonalizing the dynamical matrix

     q = (    0.500000000  -0.500000000   0.500000000 ) 

 **************************************************************************
     freq (    1) =      16.459249 [THz] =     549.021454 [cm-1]
     freq (    2) =      16.459249 [THz] =     549.021454 [cm-1]
     freq (    3) =      30.342386 [THz] =    1012.113041 [cm-1]
     freq (    4) =      35.198250 [THz] =    1174.087235 [cm-1]
     freq (    5) =      35.198250 [THz] =    1174.087235 [cm-1]
     freq (    6) =      37.289665 [THz] =    1243.849326 [cm-1]
 **************************************************************************

     Calculation of q =    0.0000000   0.5000000   0.0000000
 
     G-vector sticks info
     --------------------
     sticks:   dense  smooth     PW     G-vecs:    dense   smooth      PW
     Sum         637     379    139                10417     4909    1067
 
     Using Pencil Decomposition
 

     Title: 
     phonons of Carbon diamond on a grid                                        


     bravais-lattice index     =            2
     lattice parameter (alat)  =       6.7407  a.u.
     unit-cell volume          =      76.5678 (a.u.)^3
     number of atoms/cell      =            2
     number of atomic types    =            1
     number of electrons       =         8.00
     number of Kohn-Sham states=            4
     kinetic-energy cutoff     =      60.0000  Ry
     charge density cutoff     =     400.0000  Ry
     Exchange-correlation= PZ
                           (   1   1   0   0   0   0   0)

     celldm(1)=   6.740653  celldm(2)=   0.000000  celldm(3)=   0.000000
     celldm(4)=   0.000000  celldm(5)=   0.000000  celldm(6)=   0.000000

     crystal axes: (cart. coord. in units of alat)
               a(1) = (  -0.500000   0.000000   0.500000 )  
               a(2) = (   0.000000   0.500000   0.500000 )  
               a(3) = (  -0.500000   0.500000   0.000000 )  

     reciprocal axes: (cart. coord. in units 2 pi/alat)
               b(1) = ( -1.000000 -1.000000  1.000000 )  
               b(2) = (  1.000000  1.000000  1.000000 )  
               b(3) = ( -1.000000  1.000000 -1.000000 )  


     PseudoPot. # 1 for C  read from file:
     ./C.pz-vbc.UPF
     MD5 check sum: ab53dd623bfeb79c5a7b057bc96eae20
     Pseudo is Norm-conserving, Zval =  4.0
     Generated by new atomic code, or converted to UPF format
     Using radial grid of  269 points,  1 beta functions with: 
                l(1) =   0

     atomic species   valence    mass     pseudopotential
        C              4.00    12.01100     C ( 1.00)

     48 Sym. Ops., with inversion, found



   Cartesian axes

     site n.     atom                  positions (alat units)
         1           C   tau(   1) = (   0.0000000   0.0000000   0.0000000  )
         2           C   tau(   2) = (  -0.2500000   0.2500000   0.2500000  )

     number of k points=   200

     Number of k-points >= 100: set verbosity='high' to print them.

     Dense  grid:    10417 G-vectors     FFT dimensions: (  32,  32,  32)

     Smooth grid:     4909 G-vectors     FFT dimensions: (  24,  24,  24)

     Estimated max dynamical RAM per process >       3.97 MB

     The potential is recalculated from file :
     ./_ph0/CD.save/charge-density

     Starting wfcs are    8 atomic wfcs

     Band Structure Calculation
     Davidson diagonalization with overlap

     ethr =  1.25E-10,  avg # of iterations =  9.4

     total cpu time spent up to now is        4.2 secs

     End of band structure calculation

     Number of k-points >= 100: set verbosity='high' to print the bands.

     highest occupied level (ev):    13.1808

     Writing config to output data dir ./_ph0/CD.save/

     phonons of Carbon diamond on a grid                                        

     bravais-lattice index     =            2
     lattice parameter (alat)  =       6.7407  a.u.
     unit-cell volume          =      76.5678 (a.u.)^3
     number of atoms/cell      =            2
     number of atomic types    =            1
     kinetic-energy cut-off    =      60.0000  Ry
     charge density cut-off    =     400.0000  Ry
     convergence threshold     =      1.0E-12
     beta                      =       0.7000
     number of iterations used =            4
     Exchange-correlation= PZ
                           (   1   1   0   0   0   0   0)


     celldm(1)=    6.74065  celldm(2)=    0.00000  celldm(3)=    0.00000
     celldm(4)=    0.00000  celldm(5)=    0.00000  celldm(6)=    0.00000

     crystal axes: (cart. coord. in units of alat)
               a(1) = ( -0.5000  0.0000  0.5000 )  
               a(2) = (  0.0000  0.5000  0.5000 )  
               a(3) = ( -0.5000  0.5000  0.0000 )  

     reciprocal axes: (cart. coord. in units 2 pi/alat)
               b(1) = ( -1.0000 -1.0000  1.0000 )  
               b(2) = (  1.0000  1.0000  1.0000 )  
               b(3) = ( -1.0000  1.0000 -1.0000 )  


     Atoms inside the unit cell: 

     Cartesian axes

     site n.  atom      mass           positions (alat units)
        1     C   12.0110   tau(    1) = (    0.00000    0.00000    0.00000  )
        2     C   12.0110   tau(    2) = (   -0.25000    0.25000    0.25000  )

     Computing dynamical matrix for 
                    q = (   0.0000000   0.5000000   0.0000000 )
 
      8 Sym.Ops. (no q -> -q+G )


     G cutoff =  460.3670  (  10417 G-vectors)     FFT grid: ( 32, 32, 32)
     G cutoff =  276.2202  (   4909 G-vectors)  smooth grid: ( 24, 24, 24)
     number of k points=   200

     PseudoPot. # 1 for C  read from file:
     ./C.pz-vbc.UPF
     MD5 check sum: ab53dd623bfeb79c5a7b057bc96eae20
     Pseudo is Norm-conserving, Zval =  4.0
     Generated by new atomic code, or converted to UPF format
     Using radial grid of  269 points,  1 beta functions with: 
                l(1) =   0

     Mode symmetry, C_4v (4mm)  point group:


     Atomic displacements:
     There are    4 irreducible representations

     Representation     1      1 modes -  To be done

     Representation     2      1 modes -  To be done

     Representation     3      2 modes -  To be done

     Representation     4      2 modes -  To be done



     Alpha used in Ewald sum =   2.8000
     PHONON       :     39.67s CPU     50.03s WALL



     Representation #   1 mode #   1

     Self-consistent Calculation

      iter #   1 total cpu time :    50.6 secs   av.it.:   6.9
      thresh= 1.000E-02 alpha_mix =  0.700 |ddv_scf|^2 =  1.502E-03

      iter #   2 total cpu time :    51.2 secs   av.it.:   7.9
      thresh= 3.876E-03 alpha_mix =  0.700 |ddv_scf|^2 =  5.275E-03

      iter #   3 total cpu time :    51.7 secs   av.it.:   6.9
      thresh= 7.263E-03 alpha_mix =  0.700 |ddv_scf|^2 =  1.869E-07

      iter #   4 total cpu time :    52.3 secs   av.it.:   7.8
      thresh= 4.323E-05 alpha_mix =  0.700 |ddv_scf|^2 =  9.517E-10

      iter #   5 total cpu time :    52.8 secs   av.it.:   7.8
      thresh= 3.085E-06 alpha_mix =  0.700 |ddv_scf|^2 =  1.648E-11

      iter #   6 total cpu time :    53.4 secs   av.it.:   8.1
      thresh= 4.060E-07 alpha_mix =  0.700 |ddv_scf|^2 =  6.808E-14

     End of self-consistent calculation

     Convergence has been achieved 


     Representation #   2 mode #   2

     Self-consistent Calculation

      iter #   1 total cpu time :    53.9 secs   av.it.:   6.1
      thresh= 1.000E-02 alpha_mix =  0.700 |ddv_scf|^2 =  6.356E-06

      iter #   2 total cpu time :    54.6 secs   av.it.:   8.8
      thresh= 2.521E-04 alpha_mix =  0.700 |ddv_scf|^2 =  1.160E-06

      iter #   3 total cpu time :    55.2 secs   av.it.:   8.7
      thresh= 1.077E-04 alpha_mix =  0.700 |ddv_scf|^2 =  5.704E-08

      iter #   4 total cpu time :    55.8 secs   av.it.:   8.5
      thresh= 2.388E-05 alpha_mix =  0.700 |ddv_scf|^2 =  9.474E-11

      iter #   5 total cpu time :    56.4 secs   av.it.:   8.4
      thresh= 9.734E-07 alpha_mix =  0.700 |ddv_scf|^2 =  1.572E-12

      iter #   6 total cpu time :    57.0 secs   av.it.:   8.2
      thresh= 1.254E-07 alpha_mix =  0.700 |ddv_scf|^2 =  4.827E-16

     End of self-consistent calculation

     Convergence has been achieved 


     Representation #   3 modes #   3   4

     Self-consistent Calculation

      iter #   1 total cpu time :    58.0 secs   av.it.:   6.3
      thresh= 1.000E-02 alpha_mix =  0.700 |ddv_scf|^2 =  7.461E-07

      iter #   2 total cpu time :    59.4 secs   av.it.:   9.8
      thresh= 8.638E-05 alpha_mix =  0.700 |ddv_scf|^2 =  6.728E-09

      iter #   3 total cpu time :    60.7 secs   av.it.:   9.6
      thresh= 8.203E-06 alpha_mix =  0.700 |ddv_scf|^2 =  7.643E-11

      iter #   4 total cpu time :    62.0 secs   av.it.:   9.4
      thresh= 8.743E-07 alpha_mix =  0.700 |ddv_scf|^2 =  2.438E-12

      iter #   5 total cpu time :    63.2 secs   av.it.:   9.0
      thresh= 1.561E-07 alpha_mix =  0.700 |ddv_scf|^2 =  1.145E-15

     End of self-consistent calculation

     Convergence has been achieved 


     Representation #   4 modes #   5   6

     Self-consistent Calculation

      iter #   1 total cpu time :    64.3 secs   av.it.:   6.3
      thresh= 1.000E-02 alpha_mix =  0.700 |ddv_scf|^2 =  1.086E-06

      iter #   2 total cpu time :    65.6 secs   av.it.:   9.7
      thresh= 1.042E-04 alpha_mix =  0.700 |ddv_scf|^2 =  9.679E-09

      iter #   3 total cpu time :    66.9 secs   av.it.:   9.6
      thresh= 9.838E-06 alpha_mix =  0.700 |ddv_scf|^2 =  7.419E-11

      iter #   4 total cpu time :    68.2 secs   av.it.:   9.3
      thresh= 8.613E-07 alpha_mix =  0.700 |ddv_scf|^2 =  2.089E-12

      iter #   5 total cpu time :    69.5 secs   av.it.:   9.0
      thresh= 1.445E-07 alpha_mix =  0.700 |ddv_scf|^2 =  1.263E-15

     End of self-consistent calculation

     Convergence has been achieved 
 
     Number of q in the star =    6
     List of q in the star:
          1   0.000000000   0.500000000   0.000000000
          2   0.000000000  -0.500000000   0.000000000
          3   0.500000000   0.000000000   0.000000000
          4   0.000000000   0.000000000   0.500000000
          5   0.000000000   0.000000000  -0.500000000
          6  -0.500000000   0.000000000   0.000000000

     Diagonalizing the dynamical matrix

     q = (    0.000000000   0.500000000   0.000000000 ) 

 **************************************************************************
     freq (    1) =      15.705425 [THz] =     523.876594 [cm-1]
     freq (    2) =      15.705425 [THz] =     523.876594 [cm-1]
     freq (    3) =      22.120587 [THz] =     737.863369 [cm-1]
     freq (    4) =      35.207390 [THz] =    1174.392118 [cm-1]
     freq (    5) =      35.207390 [THz] =    1174.392118 [cm-1]
     freq (    6) =      38.851223 [THz] =    1295.937317 [cm-1]
 **************************************************************************

     Mode symmetry, C_4v (4mm)  point group:

     freq (   1-   2) =        523.9  [cm-1]   --> E    G_5 D_5       
     freq (   3-   3) =        737.9  [cm-1]   --> A_1  G_1 D_1       
     freq (   4-   5) =       1174.4  [cm-1]   --> E    G_5 D_5       
     freq (   6-   6) =       1295.9  [cm-1]   --> B_2  G_4 D_2'      

     Calculation of q =    0.7500000  -0.2500000   0.7500000
 
     G-vector sticks info
     --------------------
     sticks:   dense  smooth     PW     G-vecs:    dense   smooth      PW
     Sum         637     379    151                10417     4909    1243
 
     Using Pencil Decomposition
 

     Title: 
     phonons of Carbon diamond on a grid                                        


     bravais-lattice index     =            2
     lattice parameter (alat)  =       6.7407  a.u.
     unit-cell volume          =      76.5678 (a.u.)^3
     number of atoms/cell      =            2
     number of atomic types    =            1
     number of electrons       =         8.00
     number of Kohn-Sham states=            4
     kinetic-energy cutoff     =      60.0000  Ry
     charge density cutoff     =     400.0000  Ry
     Exchange-correlation= PZ
                           (   1   1   0   0   0   0   0)

     celldm(1)=   6.740653  celldm(2)=   0.000000  celldm(3)=   0.000000
     celldm(4)=   0.000000  celldm(5)=   0.000000  celldm(6)=   0.000000

     crystal axes: (cart. coord. in units of alat)
               a(1) = (  -0.500000   0.000000   0.500000 )  
               a(2) = (   0.000000   0.500000   0.500000 )  
               a(3) = (  -0.500000   0.500000   0.000000 )  

     reciprocal axes: (cart. coord. in units 2 pi/alat)
               b(1) = ( -1.000000 -1.000000  1.000000 )  
               b(2) = (  1.000000  1.000000  1.000000 )  
               b(3) = ( -1.000000  1.000000 -1.000000 )  


     PseudoPot. # 1 for C  read from file:
     ./C.pz-vbc.UPF
     MD5 check sum: ab53dd623bfeb79c5a7b057bc96eae20
     Pseudo is Norm-conserving, Zval =  4.0
     Generated by new atomic code, or converted to UPF format
     Using radial grid of  269 points,  1 beta functions with: 
                l(1) =   0

     atomic species   valence    mass     pseudopotential
        C              4.00    12.01100     C ( 1.00)

     48 Sym. Ops., with inversion, found



   Cartesian axes

     site n.     atom                  positions (alat units)
         1           C   tau(   1) = (   0.0000000   0.0000000   0.0000000  )
         2           C   tau(   2) = (  -0.2500000   0.2500000   0.2500000  )

     number of k points=   576

     Number of k-points >= 100: set verbosity='high' to print them.

     Dense  grid:    10417 G-vectors     FFT dimensions: (  32,  32,  32)

     Smooth grid:     4909 G-vectors     FFT dimensions: (  24,  24,  24)

     Estimated max dynamical RAM per process >       3.97 MB

     The potential is recalculated from file :
     ./_ph0/CD.save/charge-density

     Starting wfcs are    8 atomic wfcs

     Band Structure Calculation
     Davidson diagonalization with overlap

     ethr =  1.25E-10,  avg # of iterations =  9.4

     total cpu time spent up to now is        8.4 secs

     End of band structure calculation

     Number of k-points >= 100: set verbosity='high' to print the bands.

     highest occupied level (ev):    13.1808

     Writing config to output data dir ./_ph0/CD.save/

     phonons of Carbon diamond on a grid                                        

     bravais-lattice index     =            2
     lattice parameter (alat)  =       6.7407  a.u.
     unit-cell volume          =      76.5678 (a.u.)^3
     number of atoms/cell      =            2
     number of atomic types    =            1
     kinetic-energy cut-off    =      60.0000  Ry
     charge density cut-off    =     400.0000  Ry
     convergence threshold     =      1.0E-12
     beta                      =       0.7000
     number of iterations used =            4
     Exchange-correlation= PZ
                           (   1   1   0   0   0   0   0)


     celldm(1)=    6.74065  celldm(2)=    0.00000  celldm(3)=    0.00000
     celldm(4)=    0.00000  celldm(5)=    0.00000  celldm(6)=    0.00000

     crystal axes: (cart. coord. in units of alat)
               a(1) = ( -0.5000  0.0000  0.5000 )  
               a(2) = (  0.0000  0.5000  0.5000 )  
               a(3) = ( -0.5000  0.5000  0.0000 )  

     reciprocal axes: (cart. coord. in units 2 pi/alat)
               b(1) = ( -1.0000 -1.0000  1.0000 )  
               b(2) = (  1.0000  1.0000  1.0000 )  
               b(3) = ( -1.0000  1.0000 -1.0000 )  


     Atoms inside the unit cell: 

     Cartesian axes

     site n.  atom      mass           positions (alat units)
        1     C   12.0110   tau(    1) = (    0.00000    0.00000    0.00000  )
        2     C   12.0110   tau(    2) = (   -0.25000    0.25000    0.25000  )

     Computing dynamical matrix for 
                    q = (   0.7500000  -0.2500000   0.7500000 )
 
      2 Sym.Ops. (no q -> -q+G )


     G cutoff =  460.3670  (  10417 G-vectors)     FFT grid: ( 32, 32, 32)
     G cutoff =  276.2202  (   4909 G-vectors)  smooth grid: ( 24, 24, 24)
     number of k points=   576

     PseudoPot. # 1 for C  read from file:
     ./C.pz-vbc.UPF
     MD5 check sum: ab53dd623bfeb79c5a7b057bc96eae20
     Pseudo is Norm-conserving, Zval =  4.0
     Generated by new atomic code, or converted to UPF format
     Using radial grid of  269 points,  1 beta functions with: 
                l(1) =   0

     Mode symmetry, C_s (m)     point group:


     Atomic displacements:
     There are    6 irreducible representations

     Representation     1      1 modes -  To be done

     Representation     2      1 modes -  To be done

     Representation     3      1 modes -  To be done

     Representation     4      1 modes -  To be done

     Representation     5      1 modes -  To be done

     Representation     6      1 modes -  To be done



     Alpha used in Ewald sum =   2.8000
     PHONON       :     58.33s CPU   1m13.76s WALL



     Representation #   1 mode #   1

     Self-consistent Calculation

      iter #   1 total cpu time :    75.3 secs   av.it.:   6.8
      thresh= 1.000E-02 alpha_mix =  0.700 |ddv_scf|^2 =  8.748E-05

      iter #   2 total cpu time :    77.1 secs   av.it.:   9.0
      thresh= 9.353E-04 alpha_mix =  0.700 |ddv_scf|^2 =  7.904E-05

      iter #   3 total cpu time :    78.8 secs   av.it.:   8.3
      thresh= 8.890E-04 alpha_mix =  0.700 |ddv_scf|^2 =  3.862E-07

      iter #   4 total cpu time :    80.5 secs   av.it.:   8.7
      thresh= 6.214E-05 alpha_mix =  0.700 |ddv_scf|^2 =  7.374E-09

      iter #   5 total cpu time :    82.3 secs   av.it.:   8.9
      thresh= 8.587E-06 alpha_mix =  0.700 |ddv_scf|^2 =  2.207E-10

      iter #   6 total cpu time :    84.1 secs   av.it.:   9.0
      thresh= 1.486E-06 alpha_mix =  0.700 |ddv_scf|^2 =  4.901E-12

      iter #   7 total cpu time :    85.9 secs   av.it.:   8.6
      thresh= 2.214E-07 alpha_mix =  0.700 |ddv_scf|^2 =  7.790E-14

     End of self-consistent calculation

     Convergence has been achieved 


     Representation #   2 mode #   2

     Self-consistent Calculation

      iter #   1 total cpu time :    87.4 secs   av.it.:   6.8
      thresh= 1.000E-02 alpha_mix =  0.700 |ddv_scf|^2 =  6.133E-05

      iter #   2 total cpu time :    89.3 secs   av.it.:   9.1
      thresh= 7.831E-04 alpha_mix =  0.700 |ddv_scf|^2 =  5.713E-05

      iter #   3 total cpu time :    91.0 secs   av.it.:   8.3
      thresh= 7.559E-04 alpha_mix =  0.700 |ddv_scf|^2 =  2.082E-07

      iter #   4 total cpu time :    92.8 secs   av.it.:   8.8
      thresh= 4.563E-05 alpha_mix =  0.700 |ddv_scf|^2 =  1.487E-08

      iter #   5 total cpu time :    94.5 secs   av.it.:   8.7
      thresh= 1.220E-05 alpha_mix =  0.700 |ddv_scf|^2 =  5.937E-11

      iter #   6 total cpu time :    96.3 secs   av.it.:   8.8
      thresh= 7.705E-07 alpha_mix =  0.700 |ddv_scf|^2 =  2.888E-12

      iter #   7 total cpu time :    98.1 secs   av.it.:   8.9
      thresh= 1.699E-07 alpha_mix =  0.700 |ddv_scf|^2 =  1.544E-13

     End of self-consistent calculation

     Convergence has been achieved 


     Representation #   3 mode #   3

     Self-consistent Calculation

      iter #   1 total cpu time :    99.6 secs   av.it.:   6.6
      thresh= 1.000E-02 alpha_mix =  0.700 |ddv_scf|^2 =  4.550E-05

      iter #   2 total cpu time :   101.4 secs   av.it.:   9.0
      thresh= 6.745E-04 alpha_mix =  0.700 |ddv_scf|^2 =  3.301E-05

      iter #   3 total cpu time :   103.1 secs   av.it.:   8.3
      thresh= 5.746E-04 alpha_mix =  0.700 |ddv_scf|^2 =  4.807E-07

      iter #   4 total cpu time :   104.8 secs   av.it.:   8.5
      thresh= 6.934E-05 alpha_mix =  0.700 |ddv_scf|^2 =  3.446E-09

      iter #   5 total cpu time :   106.6 secs   av.it.:   8.9
      thresh= 5.870E-06 alpha_mix =  0.700 |ddv_scf|^2 =  3.832E-10

      iter #   6 total cpu time :   108.4 secs   av.it.:   8.9
      thresh= 1.958E-06 alpha_mix =  0.700 |ddv_scf|^2 =  7.491E-12

      iter #   7 total cpu time :   110.2 secs   av.it.:   8.8
      thresh= 2.737E-07 alpha_mix =  0.700 |ddv_scf|^2 =  8.560E-14

     End of self-consistent calculation

     Convergence has been achieved 


     Representation #   4 mode #   4

     Self-consistent Calculation

      iter #   1 total cpu time :   111.7 secs   av.it.:   6.5
      thresh= 1.000E-02 alpha_mix =  0.700 |ddv_scf|^2 =  1.937E-05

      iter #   2 total cpu time :   113.5 secs   av.it.:   9.1
      thresh= 4.401E-04 alpha_mix =  0.700 |ddv_scf|^2 =  1.113E-05

      iter #   3 total cpu time :   115.3 secs   av.it.:   8.5
      thresh= 3.336E-04 alpha_mix =  0.700 |ddv_scf|^2 =  3.653E-07

      iter #   4 total cpu time :   117.0 secs   av.it.:   8.4
      thresh= 6.044E-05 alpha_mix =  0.700 |ddv_scf|^2 =  5.184E-09

      iter #   5 total cpu time :   118.8 secs   av.it.:   8.9
      thresh= 7.200E-06 alpha_mix =  0.700 |ddv_scf|^2 =  4.540E-10

      iter #   6 total cpu time :   120.5 secs   av.it.:   8.9
      thresh= 2.131E-06 alpha_mix =  0.700 |ddv_scf|^2 =  9.041E-12

      iter #   7 total cpu time :   122.3 secs   av.it.:   8.9
      thresh= 3.007E-07 alpha_mix =  0.700 |ddv_scf|^2 =  2.361E-13

     End of self-consistent calculation

     Convergence has been achieved 


     Representation #   5 mode #   5

     Self-consistent Calculation

      iter #   1 total cpu time :   123.8 secs   av.it.:   6.2
      thresh= 1.000E-02 alpha_mix =  0.700 |ddv_scf|^2 =  4.275E-06

      iter #   2 total cpu time :   125.5 secs   av.it.:   8.9
      thresh= 2.068E-04 alpha_mix =  0.700 |ddv_scf|^2 =  5.733E-08

      iter #   3 total cpu time :   127.3 secs   av.it.:   8.8
      thresh= 2.394E-05 alpha_mix =  0.700 |ddv_scf|^2 =  3.333E-10

      iter #   4 total cpu time :   129.0 secs   av.it.:   8.6
      thresh= 1.826E-06 alpha_mix =  0.700 |ddv_scf|^2 =  8.879E-12

      iter #   5 total cpu time :   130.8 secs   av.it.:   8.2
      thresh= 2.980E-07 alpha_mix =  0.700 |ddv_scf|^2 =  1.077E-14

     End of self-consistent calculation

     Convergence has been achieved 


     Representation #   6 mode #   6

     Self-consistent Calculation

      iter #   1 total cpu time :   132.2 secs   av.it.:   6.2
      thresh= 1.000E-02 alpha_mix =  0.700 |ddv_scf|^2 =  4.275E-06

      iter #   2 total cpu time :   134.0 secs   av.it.:   8.9
      thresh= 2.068E-04 alpha_mix =  0.700 |ddv_scf|^2 =  5.732E-08

      iter #   3 total cpu time :   135.7 secs   av.it.:   8.8
      thresh= 2.394E-05 alpha_mix =  0.700 |ddv_scf|^2 =  3.333E-10

      iter #   4 total cpu time :   137.5 secs   av.it.:   8.6
      thresh= 1.826E-06 alpha_mix =  0.700 |ddv_scf|^2 =  8.878E-12

      iter #   5 total cpu time :   139.2 secs   av.it.:   8.2
      thresh= 2.980E-07 alpha_mix =  0.700 |ddv_scf|^2 =  1.077E-14

     End of self-consistent calculation

     Convergence has been achieved 
 
     Number of q in the star =   24
     List of q in the star:
          1   0.750000000  -0.250000000   0.750000000
          2   0.750000000  -0.250000000  -0.750000000
          3  -0.750000000  -0.250000000  -0.750000000
          4  -0.750000000  -0.250000000   0.750000000
          5  -0.750000000   0.250000000  -0.750000000
          6  -0.250000000   0.750000000  -0.750000000
          7  -0.750000000   0.750000000  -0.250000000
          8   0.750000000   0.250000000   0.750000000
          9  -0.750000000   0.250000000   0.750000000
         10   0.750000000   0.250000000  -0.750000000
         11  -0.750000000   0.750000000   0.250000000
         12  -0.250000000   0.750000000   0.750000000
         13   0.250000000   0.750000000  -0.750000000
         14  -0.250000000  -0.750000000  -0.750000000
         15   0.750000000   0.750000000  -0.250000000
         16   0.750000000  -0.750000000   0.250000000
         17  -0.750000000  -0.750000000  -0.250000000
         18   0.250000000  -0.750000000   0.750000000
         19  -0.750000000  -0.750000000   0.250000000
         20   0.250000000   0.750000000   0.750000000
         21  -0.250000000  -0.750000000   0.750000000
         22   0.750000000   0.750000000   0.250000000
         23   0.250000000  -0.750000000  -0.750000000
         24   0.750000000  -0.750000000  -0.250000000

     Diagonalizing the dynamical matrix

     q = (    0.750000000  -0.250000000   0.750000000 ) 

 **************************************************************************
     freq (    1) =      20.337037 [THz] =     678.370546 [cm-1]
     freq (    2) =      24.344640 [THz] =     812.049780 [cm-1]
     freq (    3) =      28.343183 [THz] =     945.426813 [cm-1]
     freq (    4) =      32.966270 [THz] =    1099.636393 [cm-1]
     freq (    5) =      33.823184 [THz] =    1128.219989 [cm-1]
     freq (    6) =      36.488863 [THz] =    1217.137454 [cm-1]
 **************************************************************************

     Mode symmetry, C_s (m)     point group:

     freq (   1-   1) =        678.4  [cm-1]   --> A''                
     freq (   2-   2) =        812.0  [cm-1]   --> A'                 
     freq (   3-   3) =        945.4  [cm-1]   --> A'                 
     freq (   4-   4) =       1099.6  [cm-1]   --> A''                
     freq (   5-   5) =       1128.2  [cm-1]   --> A'                 
     freq (   6-   6) =       1217.1  [cm-1]   --> A'                 

     Calculation of q =    0.5000000   0.0000000   0.5000000
 
     G-vector sticks info
     --------------------
     sticks:   dense  smooth     PW     G-vecs:    dense   smooth      PW
     Sum         637     379    151                10417     4909    1139
 
     Using Pencil Decomposition
 

     Title: 
     phonons of Carbon diamond on a grid                                        


     bravais-lattice index     =            2
     lattice parameter (alat)  =       6.7407  a.u.
     unit-cell volume          =      76.5678 (a.u.)^3
     number of atoms/cell      =            2
     number of atomic types    =            1
     number of electrons       =         8.00
     number of Kohn-Sham states=            4
     kinetic-energy cutoff     =      60.0000  Ry
     charge density cutoff     =     400.0000  Ry
     Exchange-correlation= PZ
                           (   1   1   0   0   0   0   0)

     celldm(1)=   6.740653  celldm(2)=   0.000000  celldm(3)=   0.000000
     celldm(4)=   0.000000  celldm(5)=   0.000000  celldm(6)=   0.000000

     crystal axes: (cart. coord. in units of alat)
               a(1) = (  -0.500000   0.000000   0.500000 )  
               a(2) = (   0.000000   0.500000   0.500000 )  
               a(3) = (  -0.500000   0.500000   0.000000 )  

     reciprocal axes: (cart. coord. in units 2 pi/alat)
               b(1) = ( -1.000000 -1.000000  1.000000 )  
               b(2) = (  1.000000  1.000000  1.000000 )  
               b(3) = ( -1.000000  1.000000 -1.000000 )  


     PseudoPot. # 1 for C  read from file:
     ./C.pz-vbc.UPF
     MD5 check sum: ab53dd623bfeb79c5a7b057bc96eae20
     Pseudo is Norm-conserving, Zval =  4.0
     Generated by new atomic code, or converted to UPF format
     Using radial grid of  269 points,  1 beta functions with: 
                l(1) =   0

     atomic species   valence    mass     pseudopotential
        C              4.00    12.01100     C ( 1.00)

     48 Sym. Ops., with inversion, found



   Cartesian axes

     site n.     atom                  positions (alat units)
         1           C   tau(   1) = (   0.0000000   0.0000000   0.0000000  )
         2           C   tau(   2) = (  -0.2500000   0.2500000   0.2500000  )

     number of k points=   328

     Number of k-points >= 100: set verbosity='high' to print them.

     Dense  grid:    10417 G-vectors     FFT dimensions: (  32,  32,  32)

     Smooth grid:     4909 G-vectors     FFT dimensions: (  24,  24,  24)

     Estimated max dynamical RAM per process >       3.97 MB

     The potential is recalculated from file :
     ./_ph0/CD.save/charge-density

     Starting wfcs are    8 atomic wfcs

     Band Structure Calculation
     Davidson diagonalization with overlap

     ethr =  1.25E-10,  avg # of iterations =  9.4

     total cpu time spent up to now is       10.8 secs

     End of band structure calculation

     Number of k-points >= 100: set verbosity='high' to print the bands.

     highest occupied level (ev):    13.1808

     Writing config to output data dir ./_ph0/CD.save/

     phonons of Carbon diamond on a grid                                        

     bravais-lattice index     =            2
     lattice parameter (alat)  =       6.7407  a.u.
     unit-cell volume          =      76.5678 (a.u.)^3
     number of atoms/cell      =            2
     number of atomic types    =            1
     kinetic-energy cut-off    =      60.0000  Ry
     charge density cut-off    =     400.0000  Ry
     convergence threshold     =      1.0E-12
     beta                      =       0.7000
     number of iterations used =            4
     Exchange-correlation= PZ
                           (   1   1   0   0   0   0   0)


     celldm(1)=    6.74065  celldm(2)=    0.00000  celldm(3)=    0.00000
     celldm(4)=    0.00000  celldm(5)=    0.00000  celldm(6)=    0.00000

     crystal axes: (cart. coord. in units of alat)
               a(1) = ( -0.5000  0.0000  0.5000 )  
               a(2) = (  0.0000  0.5000  0.5000 )  
               a(3) = ( -0.5000  0.5000  0.0000 )  

     reciprocal axes: (cart. coord. in units 2 pi/alat)
               b(1) = ( -1.0000 -1.0000  1.0000 )  
               b(2) = (  1.0000  1.0000  1.0000 )  
               b(3) = ( -1.0000  1.0000 -1.0000 )  


     Atoms inside the unit cell: 

     Cartesian axes

     site n.  atom      mass           positions (alat units)
        1     C   12.0110   tau(    1) = (    0.00000    0.00000    0.00000  )
        2     C   12.0110   tau(    2) = (   -0.25000    0.25000    0.25000  )

     Computing dynamical matrix for 
                    q = (   0.5000000   0.0000000   0.5000000 )
 
      4 Sym.Ops. (no q -> -q+G )


     G cutoff =  460.3670  (  10417 G-vectors)     FFT grid: ( 32, 32, 32)
     G cutoff =  276.2202  (   4909 G-vectors)  smooth grid: ( 24, 24, 24)
     number of k points=   328

     PseudoPot. # 1 for C  read from file:
     ./C.pz-vbc.UPF
     MD5 check sum: ab53dd623bfeb79c5a7b057bc96eae20
     Pseudo is Norm-conserving, Zval =  4.0
     Generated by new atomic code, or converted to UPF format
     Using radial grid of  269 points,  1 beta functions with: 
                l(1) =   0

     Mode symmetry, C_2v (mm2)  point group:


     Atomic displacements:
     There are    6 irreducible representations

     Representation     1      1 modes -  To be done

     Representation     2      1 modes -  To be done

     Representation     3      1 modes -  To be done

     Representation     4      1 modes -  To be done

     Representation     5      1 modes -  To be done

     Representation     6      1 modes -  To be done



     Alpha used in Ewald sum =   2.8000
     PHONON       :   1m51.47s CPU   2m21.63s WALL



     Representation #   1 mode #   1

     Self-consistent Calculation

      iter #   1 total cpu time :   142.5 secs   av.it.:   6.5
      thresh= 1.000E-02 alpha_mix =  0.700 |ddv_scf|^2 =  4.727E-05

      iter #   2 total cpu time :   143.5 secs   av.it.:   8.7
      thresh= 6.875E-04 alpha_mix =  0.700 |ddv_scf|^2 =  6.273E-05

      iter #   3 total cpu time :   144.4 secs   av.it.:   7.8
      thresh= 7.920E-04 alpha_mix =  0.700 |ddv_scf|^2 =  2.714E-07

      iter #   4 total cpu time :   145.4 secs   av.it.:   8.4
      thresh= 5.210E-05 alpha_mix =  0.700 |ddv_scf|^2 =  3.466E-09

      iter #   5 total cpu time :   146.4 secs   av.it.:   8.2
      thresh= 5.887E-06 alpha_mix =  0.700 |ddv_scf|^2 =  1.222E-11

      iter #   6 total cpu time :   147.3 secs   av.it.:   8.1
      thresh= 3.495E-07 alpha_mix =  0.700 |ddv_scf|^2 =  1.555E-14

     End of self-consistent calculation

     Convergence has been achieved 


     Representation #   2 mode #   2

     Self-consistent Calculation

      iter #   1 total cpu time :   148.3 secs   av.it.:   6.9
      thresh= 1.000E-02 alpha_mix =  0.700 |ddv_scf|^2 =  3.188E-04

      iter #   2 total cpu time :   149.2 secs   av.it.:   8.5
      thresh= 1.786E-03 alpha_mix =  0.700 |ddv_scf|^2 =  4.740E-04

      iter #   3 total cpu time :   150.2 secs   av.it.:   7.8
      thresh= 2.177E-03 alpha_mix =  0.700 |ddv_scf|^2 =  3.759E-07

      iter #   4 total cpu time :   151.1 secs   av.it.:   8.5
      thresh= 6.131E-05 alpha_mix =  0.700 |ddv_scf|^2 =  3.493E-10

      iter #   5 total cpu time :   152.1 secs   av.it.:   8.7
      thresh= 1.869E-06 alpha_mix =  0.700 |ddv_scf|^2 =  1.310E-11

      iter #   6 total cpu time :   153.1 secs   av.it.:   8.3
      thresh= 3.620E-07 alpha_mix =  0.700 |ddv_scf|^2 =  3.639E-13

     End of self-consistent calculation

     Convergence has been achieved 


     Representation #   3 mode #   3

     Self-consistent Calculation

      iter #   1 total cpu time :   153.9 secs   av.it.:   6.1
      thresh= 1.000E-02 alpha_mix =  0.700 |ddv_scf|^2 =  4.954E-06

      iter #   2 total cpu time :   154.9 secs   av.it.:   8.7
      thresh= 2.226E-04 alpha_mix =  0.700 |ddv_scf|^2 =  2.105E-08

      iter #   3 total cpu time :   155.9 secs   av.it.:   8.7
      thresh= 1.451E-05 alpha_mix =  0.700 |ddv_scf|^2 =  2.811E-10

      iter #   4 total cpu time :   156.9 secs   av.it.:   8.2
      thresh= 1.677E-06 alpha_mix =  0.700 |ddv_scf|^2 =  3.342E-12

      iter #   5 total cpu time :   157.8 secs   av.it.:   8.1
      thresh= 1.828E-07 alpha_mix =  0.700 |ddv_scf|^2 =  1.159E-15

     End of self-consistent calculation

     Convergence has been achieved 


     Representation #   4 mode #   4

     Self-consistent Calculation

      iter #   1 total cpu time :   158.6 secs   av.it.:   6.0
      thresh= 1.000E-02 alpha_mix =  0.700 |ddv_scf|^2 =  5.672E-07

      iter #   2 total cpu time :   159.6 secs   av.it.:   8.7
      thresh= 7.531E-05 alpha_mix =  0.700 |ddv_scf|^2 =  3.831E-09

      iter #   3 total cpu time :   160.7 secs   av.it.:   8.6
      thresh= 6.190E-06 alpha_mix =  0.700 |ddv_scf|^2 =  1.287E-10

      iter #   4 total cpu time :   161.6 secs   av.it.:   7.9
      thresh= 1.135E-06 alpha_mix =  0.700 |ddv_scf|^2 =  3.961E-14

     End of self-consistent calculation

     Convergence has been achieved 


     Representation #   5 mode #   5

     Self-consistent Calculation

      iter #   1 total cpu time :   162.4 secs   av.it.:   6.0
      thresh= 1.000E-02 alpha_mix =  0.700 |ddv_scf|^2 =  8.354E-07

      iter #   2 total cpu time :   163.4 secs   av.it.:   9.2
      thresh= 9.140E-05 alpha_mix =  0.700 |ddv_scf|^2 =  2.031E-07

      iter #   3 total cpu time :   164.4 secs   av.it.:   8.8
      thresh= 4.507E-05 alpha_mix =  0.700 |ddv_scf|^2 =  1.434E-08

      iter #   4 total cpu time :   165.4 secs   av.it.:   8.6
      thresh= 1.198E-05 alpha_mix =  0.700 |ddv_scf|^2 =  6.843E-11

      iter #   5 total cpu time :   166.4 secs   av.it.:   8.7
      thresh= 8.272E-07 alpha_mix =  0.700 |ddv_scf|^2 =  2.059E-12

      iter #   6 total cpu time :   167.4 secs   av.it.:   8.7
      thresh= 1.435E-07 alpha_mix =  0.700 |ddv_scf|^2 =  4.898E-15

     End of self-consistent calculation

     Convergence has been achieved 


     Representation #   6 mode #   6

     Self-consistent Calculation

      iter #   1 total cpu time :   168.3 secs   av.it.:   6.5
      thresh= 1.000E-02 alpha_mix =  0.700 |ddv_scf|^2 =  2.189E-05

      iter #   2 total cpu time :   169.3 secs   av.it.:   8.9
      thresh= 4.678E-04 alpha_mix =  0.700 |ddv_scf|^2 =  7.083E-06

      iter #   3 total cpu time :   170.3 secs   av.it.:   8.7
      thresh= 2.661E-04 alpha_mix =  0.700 |ddv_scf|^2 =  1.054E-07

      iter #   4 total cpu time :   171.3 secs   av.it.:   8.6
      thresh= 3.247E-05 alpha_mix =  0.700 |ddv_scf|^2 =  1.087E-10

      iter #   5 total cpu time :   172.3 secs   av.it.:   8.2
      thresh= 1.043E-06 alpha_mix =  0.700 |ddv_scf|^2 =  2.384E-12

      iter #   6 total cpu time :   173.2 secs   av.it.:   8.1
      thresh= 1.544E-07 alpha_mix =  0.700 |ddv_scf|^2 =  4.251E-15

     End of self-consistent calculation

     Convergence has been achieved 
 
     Number of q in the star =   12
     List of q in the star:
          1   0.500000000   0.000000000   0.500000000
          2  -0.500000000   0.000000000   0.500000000
          3  -0.500000000   0.000000000  -0.500000000
          4   0.500000000   0.000000000  -0.500000000
          5   0.000000000   0.500000000  -0.500000000
          6  -0.500000000   0.500000000   0.000000000
          7   0.000000000   0.500000000   0.500000000
          8   0.000000000  -0.500000000  -0.500000000
          9   0.500000000   0.500000000   0.000000000
         10   0.500000000  -0.500000000   0.000000000
         11  -0.500000000  -0.500000000   0.000000000
         12   0.000000000  -0.500000000   0.500000000

     Diagonalizing the dynamical matrix

     q = (    0.500000000   0.000000000   0.500000000 ) 

 **************************************************************************
     freq (    1) =      18.568529 [THz] =     619.379467 [cm-1]
     freq (    2) =      22.664910 [THz] =     756.020020 [cm-1]
     freq (    3) =      25.217022 [THz] =     841.149301 [cm-1]
     freq (    4) =      33.757896 [THz] =    1126.042209 [cm-1]
     freq (    5) =      35.903792 [THz] =    1197.621584 [cm-1]
     freq (    6) =      36.241811 [THz] =    1208.896691 [cm-1]
 **************************************************************************

     Mode symmetry, C_2v (mm2)  point group:

     freq (   1-   1) =        619.4  [cm-1]   --> B_1  D_3  S_3      
     freq (   2-   2) =        756.0  [cm-1]   --> B_2  D_4  S_4      
     freq (   3-   3) =        841.1  [cm-1]   --> A_1  D_1  S_1      
     freq (   4-   4) =       1126.0  [cm-1]   --> A_2  D_2  S_2      
     freq (   5-   5) =       1197.6  [cm-1]   --> B_2  D_4  S_4      
     freq (   6-   6) =       1208.9  [cm-1]   --> A_1  D_1  S_1      

     Calculation of q =    0.0000000  -1.0000000   0.0000000
 
     G-vector sticks info
     --------------------
     sticks:   dense  smooth     PW     G-vecs:    dense   smooth      PW
     Sum         637     379    151                10417     4909    1211
 
     Using Pencil Decomposition
 

     Title: 
     phonons of Carbon diamond on a grid                                        


     bravais-lattice index     =            2
     lattice parameter (alat)  =       6.7407  a.u.
     unit-cell volume          =      76.5678 (a.u.)^3
     number of atoms/cell      =            2
     number of atomic types    =            1
     number of electrons       =         8.00
     number of Kohn-Sham states=            4
     kinetic-energy cutoff     =      60.0000  Ry
     charge density cutoff     =     400.0000  Ry
     Exchange-correlation= PZ
                           (   1   1   0   0   0   0   0)

     celldm(1)=   6.740653  celldm(2)=   0.000000  celldm(3)=   0.000000
     celldm(4)=   0.000000  celldm(5)=   0.000000  celldm(6)=   0.000000

     crystal axes: (cart. coord. in units of alat)
               a(1) = (  -0.500000   0.000000   0.500000 )  
               a(2) = (   0.000000   0.500000   0.500000 )  
               a(3) = (  -0.500000   0.500000   0.000000 )  

     reciprocal axes: (cart. coord. in units 2 pi/alat)
               b(1) = ( -1.000000 -1.000000  1.000000 )  
               b(2) = (  1.000000  1.000000  1.000000 )  
               b(3) = ( -1.000000  1.000000 -1.000000 )  


     PseudoPot. # 1 for C  read from file:
     ./C.pz-vbc.UPF
     MD5 check sum: ab53dd623bfeb79c5a7b057bc96eae20
     Pseudo is Norm-conserving, Zval =  4.0
     Generated by new atomic code, or converted to UPF format
     Using radial grid of  269 points,  1 beta functions with: 
                l(1) =   0

     atomic species   valence    mass     pseudopotential
        C              4.00    12.01100     C ( 1.00)

     48 Sym. Ops., with inversion, found



   Cartesian axes

     site n.     atom                  positions (alat units)
         1           C   tau(   1) = (   0.0000000   0.0000000   0.0000000  )
         2           C   tau(   2) = (  -0.2500000   0.2500000   0.2500000  )

     number of k points=   118

     Number of k-points >= 100: set verbosity='high' to print them.

     Dense  grid:    10417 G-vectors     FFT dimensions: (  32,  32,  32)

     Smooth grid:     4909 G-vectors     FFT dimensions: (  24,  24,  24)

     Estimated max dynamical RAM per process >       3.97 MB

     The potential is recalculated from file :
     ./_ph0/CD.save/charge-density

     Starting wfcs are    8 atomic wfcs

     Band Structure Calculation
     Davidson diagonalization with overlap

     ethr =  1.25E-10,  avg # of iterations =  9.3

     total cpu time spent up to now is       11.6 secs

     End of band structure calculation

     Number of k-points >= 100: set verbosity='high' to print the bands.

     highest occupied level (ev):    13.1808

     Writing config to output data dir ./_ph0/CD.save/

     phonons of Carbon diamond on a grid                                        

     bravais-lattice index     =            2
     lattice parameter (alat)  =       6.7407  a.u.
     unit-cell volume          =      76.5678 (a.u.)^3
     number of atoms/cell      =            2
     number of atomic types    =            1
     kinetic-energy cut-off    =      60.0000  Ry
     charge density cut-off    =     400.0000  Ry
     convergence threshold     =      1.0E-12
     beta                      =       0.7000
     number of iterations used =            4
     Exchange-correlation= PZ
                           (   1   1   0   0   0   0   0)


     celldm(1)=    6.74065  celldm(2)=    0.00000  celldm(3)=    0.00000
     celldm(4)=    0.00000  celldm(5)=    0.00000  celldm(6)=    0.00000

     crystal axes: (cart. coord. in units of alat)
               a(1) = ( -0.5000  0.0000  0.5000 )  
               a(2) = (  0.0000  0.5000  0.5000 )  
               a(3) = ( -0.5000  0.5000  0.0000 )  

     reciprocal axes: (cart. coord. in units 2 pi/alat)
               b(1) = ( -1.0000 -1.0000  1.0000 )  
               b(2) = (  1.0000  1.0000  1.0000 )  
               b(3) = ( -1.0000  1.0000 -1.0000 )  


     Atoms inside the unit cell: 

     Cartesian axes

     site n.  atom      mass           positions (alat units)
        1     C   12.0110   tau(    1) = (    0.00000    0.00000    0.00000  )
        2     C   12.0110   tau(    2) = (   -0.25000    0.25000    0.25000  )

     Computing dynamical matrix for 
                    q = (   0.0000000  -1.0000000   0.0000000 )
 
     17 Sym.Ops. (with q -> -q+G )


     G cutoff =  460.3670  (  10417 G-vectors)     FFT grid: ( 32, 32, 32)
     G cutoff =  276.2202  (   4909 G-vectors)  smooth grid: ( 24, 24, 24)
     number of k points=   118

     PseudoPot. # 1 for C  read from file:
     ./C.pz-vbc.UPF
     MD5 check sum: ab53dd623bfeb79c5a7b057bc96eae20
     Pseudo is Norm-conserving, Zval =  4.0
     Generated by new atomic code, or converted to UPF format
     Using radial grid of  269 points,  1 beta functions with: 
                l(1) =   0


     Atomic displacements:
     There are    3 irreducible representations

     Representation     1      2 modes -  To be done

     Representation     2      2 modes -  To be done

     Representation     3      2 modes -  To be done



     Alpha used in Ewald sum =   2.8000
     PHONON       :   2m16.82s CPU   2m54.13s WALL



     Representation #   1 modes #   1   2

     Self-consistent Calculation

      iter #   1 total cpu time :   174.7 secs   av.it.:   5.9
      thresh= 1.000E-02 alpha_mix =  0.700 |ddv_scf|^2 =  3.509E-08

      iter #   2 total cpu time :   175.5 secs   av.it.:   9.5
      thresh= 1.873E-05 alpha_mix =  0.700 |ddv_scf|^2 =  9.437E-10

      iter #   3 total cpu time :   176.3 secs   av.it.:   9.6
      thresh= 3.072E-06 alpha_mix =  0.700 |ddv_scf|^2 =  1.735E-11

      iter #   4 total cpu time :   177.1 secs   av.it.:   8.8
      thresh= 4.165E-07 alpha_mix =  0.700 |ddv_scf|^2 =  3.789E-15

     End of self-consistent calculation

     Convergence has been achieved 


     Representation #   2 modes #   3   4

     Self-consistent Calculation

      iter #   1 total cpu time :   177.7 secs   av.it.:   6.5
      thresh= 1.000E-02 alpha_mix =  0.700 |ddv_scf|^2 =  1.501E-05

      iter #   2 total cpu time :   178.5 secs   av.it.:   9.3
      thresh= 3.874E-04 alpha_mix =  0.700 |ddv_scf|^2 =  8.784E-06

      iter #   3 total cpu time :   179.2 secs   av.it.:   8.8
      thresh= 2.964E-04 alpha_mix =  0.700 |ddv_scf|^2 =  2.975E-08

      iter #   4 total cpu time :   180.0 secs   av.it.:   9.1
      thresh= 1.725E-05 alpha_mix =  0.700 |ddv_scf|^2 =  1.103E-10

      iter #   5 total cpu time :   180.7 secs   av.it.:   9.0
      thresh= 1.050E-06 alpha_mix =  0.700 |ddv_scf|^2 =  5.343E-13

     End of self-consistent calculation

     Convergence has been achieved 


     Representation #   3 modes #   5   6

     Self-consistent Calculation

      iter #   1 total cpu time :   181.3 secs   av.it.:   6.3
      thresh= 1.000E-02 alpha_mix =  0.700 |ddv_scf|^2 =  3.054E-06

      iter #   2 total cpu time :   182.1 secs   av.it.:   9.4
      thresh= 1.748E-04 alpha_mix =  0.700 |ddv_scf|^2 =  8.038E-08

      iter #   3 total cpu time :   182.9 secs   av.it.:   9.3
      thresh= 2.835E-05 alpha_mix =  0.700 |ddv_scf|^2 =  9.143E-11

      iter #   4 total cpu time :   183.6 secs   av.it.:   9.0
      thresh= 9.562E-07 alpha_mix =  0.700 |ddv_scf|^2 =  3.557E-13

     End of self-consistent calculation

     Convergence has been achieved 
 
     Number of q in the star =    3
     List of q in the star:
          1   0.000000000  -1.000000000   0.000000000
          2  -1.000000000   0.000000000   0.000000000
          3   0.000000000   0.000000000  -1.000000000

     Diagonalizing the dynamical matrix

     q = (    0.000000000  -1.000000000   0.000000000 ) 

 **************************************************************************
     freq (    1) =      23.527690 [THz] =     784.799247 [cm-1]
     freq (    2) =      23.527690 [THz] =     784.799247 [cm-1]
     freq (    3) =      30.885515 [THz] =    1030.229881 [cm-1]
     freq (    4) =      30.885515 [THz] =    1030.229881 [cm-1]
     freq (    5) =      35.386871 [THz] =    1180.378953 [cm-1]
     freq (    6) =      35.386871 [THz] =    1180.378953 [cm-1]
 **************************************************************************

     Calculation of q =   -0.5000000  -1.0000000   0.0000000
 
     G-vector sticks info
     --------------------
     sticks:   dense  smooth     PW     G-vecs:    dense   smooth      PW
     Sum         637     379    151                10417     4909    1243
 
     Using Pencil Decomposition
 

     Title: 
     phonons of Carbon diamond on a grid                                        


     bravais-lattice index     =            2
     lattice parameter (alat)  =       6.7407  a.u.
     unit-cell volume          =      76.5678 (a.u.)^3
     number of atoms/cell      =            2
     number of atomic types    =            1
     number of electrons       =         8.00
     number of Kohn-Sham states=            4
     kinetic-energy cutoff     =      60.0000  Ry
     charge density cutoff     =     400.0000  Ry
     Exchange-correlation= PZ
                           (   1   1   0   0   0   0   0)

     celldm(1)=   6.740653  celldm(2)=   0.000000  celldm(3)=   0.000000
     celldm(4)=   0.000000  celldm(5)=   0.000000  celldm(6)=   0.000000

     crystal axes: (cart. coord. in units of alat)
               a(1) = (  -0.500000   0.000000   0.500000 )  
               a(2) = (   0.000000   0.500000   0.500000 )  
               a(3) = (  -0.500000   0.500000   0.000000 )  

     reciprocal axes: (cart. coord. in units 2 pi/alat)
               b(1) = ( -1.000000 -1.000000  1.000000 )  
               b(2) = (  1.000000  1.000000  1.000000 )  
               b(3) = ( -1.000000  1.000000 -1.000000 )  


     PseudoPot. # 1 for C  read from file:
     ./C.pz-vbc.UPF
     MD5 check sum: ab53dd623bfeb79c5a7b057bc96eae20
     Pseudo is Norm-conserving, Zval =  4.0
     Generated by new atomic code, or converted to UPF format
     Using radial grid of  269 points,  1 beta functions with: 
                l(1) =   0

     atomic species   valence    mass     pseudopotential
        C              4.00    12.01100     C ( 1.00)

     48 Sym. Ops., with inversion, found



   Cartesian axes

     site n.     atom                  positions (alat units)
         1           C   tau(   1) = (   0.0000000   0.0000000   0.0000000  )
         2           C   tau(   2) = (  -0.2500000   0.2500000   0.2500000  )

     number of k points=   174

     Number of k-points >= 100: set verbosity='high' to print them.

     Dense  grid:    10417 G-vectors     FFT dimensions: (  32,  32,  32)

     Smooth grid:     4909 G-vectors     FFT dimensions: (  24,  24,  24)

     Estimated max dynamical RAM per process >       3.97 MB

     The potential is recalculated from file :
     ./_ph0/CD.save/charge-density

     Starting wfcs are    8 atomic wfcs

     Band Structure Calculation
     Davidson diagonalization with overlap

     ethr =  1.25E-10,  avg # of iterations =  9.3

     total cpu time spent up to now is       12.9 secs

     End of band structure calculation

     Number of k-points >= 100: set verbosity='high' to print the bands.

     highest occupied level (ev):    13.1808

     Writing config to output data dir ./_ph0/CD.save/

     phonons of Carbon diamond on a grid                                        

     bravais-lattice index     =            2
     lattice parameter (alat)  =       6.7407  a.u.
     unit-cell volume          =      76.5678 (a.u.)^3
     number of atoms/cell      =            2
     number of atomic types    =            1
     kinetic-energy cut-off    =      60.0000  Ry
     charge density cut-off    =     400.0000  Ry
     convergence threshold     =      1.0E-12
     beta                      =       0.7000
     number of iterations used =            4
     Exchange-correlation= PZ
                           (   1   1   0   0   0   0   0)


     celldm(1)=    6.74065  celldm(2)=    0.00000  celldm(3)=    0.00000
     celldm(4)=    0.00000  celldm(5)=    0.00000  celldm(6)=    0.00000

     crystal axes: (cart. coord. in units of alat)
               a(1) = ( -0.5000  0.0000  0.5000 )  
               a(2) = (  0.0000  0.5000  0.5000 )  
               a(3) = ( -0.5000  0.5000  0.0000 )  

     reciprocal axes: (cart. coord. in units 2 pi/alat)
               b(1) = ( -1.0000 -1.0000  1.0000 )  
               b(2) = (  1.0000  1.0000  1.0000 )  
               b(3) = ( -1.0000  1.0000 -1.0000 )  


     Atoms inside the unit cell: 

     Cartesian axes

     site n.  atom      mass           positions (alat units)
        1     C   12.0110   tau(    1) = (    0.00000    0.00000    0.00000  )
        2     C   12.0110   tau(    2) = (   -0.25000    0.25000    0.25000  )

     Computing dynamical matrix for 
                    q = (  -0.5000000  -1.0000000   0.0000000 )
 
      8 Sym.Ops. (no q -> -q+G )


     G cutoff =  460.3670  (  10417 G-vectors)     FFT grid: ( 32, 32, 32)
     G cutoff =  276.2202  (   4909 G-vectors)  smooth grid: ( 24, 24, 24)
     number of k points=   174

     PseudoPot. # 1 for C  read from file:
     ./C.pz-vbc.UPF
     MD5 check sum: ab53dd623bfeb79c5a7b057bc96eae20
     Pseudo is Norm-conserving, Zval =  4.0
     Generated by new atomic code, or converted to UPF format
     Using radial grid of  269 points,  1 beta functions with: 
                l(1) =   0


     Atomic displacements:
     There are    3 irreducible representations

     Representation     1      2 modes -  To be done

     Representation     2      2 modes -  To be done

     Representation     3      2 modes -  To be done



     Alpha used in Ewald sum =   2.8000
     PHONON       :   2m25.34s CPU   3m 4.97s WALL



     Representation #   1 modes #   1   2

     Self-consistent Calculation

      iter #   1 total cpu time :   185.8 secs   av.it.:   6.2
      thresh= 1.000E-02 alpha_mix =  0.700 |ddv_scf|^2 =  1.682E-06

      iter #   2 total cpu time :   187.0 secs   av.it.:   9.6
      thresh= 1.297E-04 alpha_mix =  0.700 |ddv_scf|^2 =  1.710E-07

      iter #   3 total cpu time :   188.1 secs   av.it.:   9.3
      thresh= 4.135E-05 alpha_mix =  0.700 |ddv_scf|^2 =  1.440E-10

      iter #   4 total cpu time :   189.3 secs   av.it.:   9.6
      thresh= 1.200E-06 alpha_mix =  0.700 |ddv_scf|^2 =  3.923E-12

      iter #   5 total cpu time :   190.3 secs   av.it.:   8.9
      thresh= 1.981E-07 alpha_mix =  0.700 |ddv_scf|^2 =  1.744E-14

     End of self-consistent calculation

     Convergence has been achieved 


     Representation #   2 modes #   3   4

     Self-consistent Calculation

      iter #   1 total cpu time :   191.3 secs   av.it.:   6.6
      thresh= 1.000E-02 alpha_mix =  0.700 |ddv_scf|^2 =  8.421E-06

      iter #   2 total cpu time :   192.4 secs   av.it.:   9.6
      thresh= 2.902E-04 alpha_mix =  0.700 |ddv_scf|^2 =  4.685E-06

      iter #   3 total cpu time :   193.5 secs   av.it.:   9.3
      thresh= 2.164E-04 alpha_mix =  0.700 |ddv_scf|^2 =  1.561E-08

      iter #   4 total cpu time :   194.6 secs   av.it.:   9.2
      thresh= 1.249E-05 alpha_mix =  0.700 |ddv_scf|^2 =  2.115E-11

      iter #   5 total cpu time :   195.7 secs   av.it.:   9.1
      thresh= 4.598E-07 alpha_mix =  0.700 |ddv_scf|^2 =  8.446E-14

     End of self-consistent calculation

     Convergence has been achieved 


     Representation #   3 modes #   5   6

     Self-consistent Calculation

      iter #   1 total cpu time :   196.6 secs   av.it.:   6.6
      thresh= 1.000E-02 alpha_mix =  0.700 |ddv_scf|^2 =  5.979E-06

      iter #   2 total cpu time :   197.8 secs   av.it.:   9.6
      thresh= 2.445E-04 alpha_mix =  0.700 |ddv_scf|^2 =  6.594E-07

      iter #   3 total cpu time :   198.9 secs   av.it.:   9.3
      thresh= 8.121E-05 alpha_mix =  0.700 |ddv_scf|^2 =  2.043E-10

      iter #   4 total cpu time :   200.1 secs   av.it.:   9.5
      thresh= 1.429E-06 alpha_mix =  0.700 |ddv_scf|^2 =  5.782E-12

      iter #   5 total cpu time :   201.1 secs   av.it.:   8.9
      thresh= 2.405E-07 alpha_mix =  0.700 |ddv_scf|^2 =  1.185E-14

     End of self-consistent calculation

     Convergence has been achieved 
 
     Number of q in the star =    6
     List of q in the star:
          1  -0.500000000  -1.000000000  -0.000000000
          2  -0.000000000   1.000000000   0.500000000
          3   0.000000000  -1.000000000  -0.500000000
          4   0.500000000   1.000000000   0.000000000
          5  -1.000000000  -0.500000000   0.000000000
          6   0.000000000  -0.500000000  -1.000000000

     Diagonalizing the dynamical matrix

     q = (   -0.500000000  -1.000000000   0.000000000 ) 

 **************************************************************************
     freq (    1) =      27.208401 [THz] =     907.574577 [cm-1]
     freq (    2) =      27.208401 [THz] =     907.574577 [cm-1]
     freq (    3) =      29.198960 [THz] =     973.972469 [cm-1]
     freq (    4) =      29.198960 [THz] =     973.972469 [cm-1]
     freq (    5) =      33.816462 [THz] =    1127.995755 [cm-1]
     freq (    6) =      33.816462 [THz] =    1127.995755 [cm-1]
 **************************************************************************
 
     init_run     :      0.17s CPU      0.18s WALL (       7 calls)
     electrons    :     10.18s CPU     12.55s WALL (       7 calls)

     Called by init_run:
     wfcinit      :      0.00s CPU      0.00s WALL (       7 calls)
     potinit      :      0.02s CPU      0.02s WALL (       7 calls)
     hinit0       :      0.03s CPU      0.03s WALL (       7 calls)

     Called by electrons:
     c_bands      :     10.18s CPU     12.55s WALL (       7 calls)
     v_of_rho     :      0.01s CPU      0.01s WALL (       8 calls)

     Called by c_bands:
     init_us_2    :      0.77s CPU      1.07s WALL (   37551 calls)
     init_us_2:cp :      0.58s CPU      0.81s WALL (   37551 calls)
     cegterg      :      8.51s CPU     10.40s WALL (    1766 calls)

     Called by *egterg:
     cdiaghg      :      0.80s CPU      0.97s WALL (   18290 calls)
     h_psi        :    102.23s CPU    128.90s WALL (  313667 calls)
     g_psi        :      0.14s CPU      0.18s WALL (   16524 calls)

     Called by h_psi:
     h_psi:calbec :      3.38s CPU      4.22s WALL (  313667 calls)
     vloc_psi     :     90.18s CPU    113.79s WALL (  313667 calls)
     add_vuspsi   :      2.65s CPU      3.32s WALL (  313667 calls)

     General routines
     calbec       :      2.95s CPU      3.74s WALL (  638373 calls)
     fft          :      0.13s CPU      0.16s WALL (    1327 calls)
     ffts         :      0.19s CPU      0.24s WALL (    6365 calls)
     fftw         :     78.84s CPU     99.93s WALL ( 2810914 calls)
     interpolate  :      0.11s CPU      0.15s WALL (     527 calls)
     davcio       :      3.31s CPU      5.02s WALL (  158639 calls)
 
     Parallel routines
 
     PHONON       :   2m37.99s CPU   3m21.15s WALL

     INITIALIZATION: 
     phq_setup    :      0.01s CPU      0.02s WALL (       8 calls)
     phq_init     :      0.25s CPU      0.38s WALL (       8 calls)
 
     phq_init     :      0.25s CPU      0.38s WALL (       8 calls)
     init_vloc    :      0.00s CPU      0.00s WALL (       8 calls)
     init_us_1    :      0.01s CPU      0.01s WALL (       8 calls)
     init_us_2    :      0.77s CPU      1.07s WALL (   37551 calls)
 
     DYNAMICAL MATRIX:
     dynmat0      :      0.12s CPU      0.18s WALL (       8 calls)
     phqscf       :    144.48s CPU    184.30s WALL (       8 calls)
     dynmatrix    :      0.01s CPU      0.01s WALL (       8 calls)
 
     phqscf       :    144.48s CPU    184.30s WALL (       8 calls)
     solve_linter :    144.13s CPU    183.64s WALL (      32 calls)
     drhodv       :      0.33s CPU      0.59s WALL (      32 calls)
 
     dynmat0      :      0.12s CPU      0.18s WALL (       8 calls)
     dynmat_us    :      0.11s CPU      0.16s WALL (       8 calls)
     d2ionq       :      0.01s CPU      0.01s WALL (       8 calls)
 
     dynmat_us    :      0.11s CPU      0.16s WALL (       8 calls)
 
     phqscf       :    144.48s CPU    184.30s WALL (       8 calls)
     solve_linter :    144.13s CPU    183.64s WALL (      32 calls)
 
     solve_linter :    144.13s CPU    183.64s WALL (      32 calls)
     dvqpsi_us    :      2.65s CPU      3.27s WALL (    5646 calls)
     sth_kernel   :    140.61s CPU    179.17s WALL (     176 calls)
     apply_dpot_b :      9.84s CPU     12.64s WALL (   25020 calls)
     ortho        :      0.72s CPU      0.92s WALL (   30666 calls)
     cgsolve      :    114.68s CPU    144.85s WALL (   30666 calls)
     incdrhoscf   :     11.68s CPU     15.59s WALL (   30579 calls)
     dv_of_drho   :      0.13s CPU      0.14s WALL (     256 calls)
     mix_pot      :      0.16s CPU      0.53s WALL (     176 calls)
     psymdvscf    :      1.76s CPU      1.81s WALL (     172 calls)
 
     dvqpsi_us    :      2.65s CPU      3.27s WALL (    5646 calls)
     dvqpsi_us_on :      0.10s CPU      0.13s WALL (    5646 calls)
 
     cgsolve      :    114.68s CPU    144.85s WALL (   30666 calls)
     ch_psi       :    110.94s CPU    140.10s WALL (  293611 calls)
 
     ch_psi       :    110.94s CPU    140.10s WALL (  293611 calls)
     h_psi        :    102.23s CPU    128.90s WALL (  313667 calls)
     last         :      9.12s CPU     11.49s WALL (  293611 calls)
 
     h_psi        :    102.23s CPU    128.90s WALL (  313667 calls)
     add_vuspsi   :      2.65s CPU      3.32s WALL (  313667 calls)
 
     incdrhoscf   :     11.68s CPU     15.59s WALL (   30579 calls)
 
 
      General routines
     calbec       :      2.95s CPU      3.74s WALL (  638373 calls)
     fft          :      0.13s CPU      0.16s WALL (    1327 calls)
     ffts         :      0.19s CPU      0.24s WALL (    6365 calls)
     fftw         :     78.84s CPU     99.93s WALL ( 2810914 calls)
     davcio       :      3.31s CPU      5.02s WALL (  158639 calls)
     write_rec    :      0.05s CPU      0.28s WALL (     208 calls)
 
 
     PHONON       :   2m37.99s CPU   3m21.15s WALL

 
   This run was terminated on:  11:46: 6  18Jul2024            

=------------------------------------------------------------------------------=
   JOB DONE.
=------------------------------------------------------------------------------=
